<?xml version="1.0" encoding="UTF-8"?>

<!-- generated on 2023-09-12 12:00:20 by Eclipse SUMO sumo Version 1.16.0
<configuration xmlns:xsi="http://www.w3.org/2001/XMLSchema-instance" xsi:noNamespaceSchemaLocation="http://sumo.dlr.de/xsd/sumoConfiguration.xsd">

    <input>
        <net-file value="./Simulation/osm.net.xml"/>
        <route-files value="./Simulation/demand.rou.xml"/>
        <additional-files value="./Simulation/detectors.xml"/>
    </input>

    <output>
        <tripinfo-output value="tripinfo.xml"/>
    </output>

    <processing>
        <waiting-time-memory value="2000"/>
    </processing>

    <report>
        <no-warnings value="true"/>
        <duration-log.disable value="true"/>
        <no-step-log value="true"/>
    </report>

    <traci_server>
        <remote-port value="55436"/>
    </traci_server>

    <gui_only>
        <gui-settings-file value="./Simulation/viewsettings.xml"/>
        <quit-on-end value="true"/>
        <start value="false"/>
    </gui_only>

</configuration>
-->

<tripinfos xmlns:xsi="http://www.w3.org/2001/XMLSchema-instance" xsi:noNamespaceSchemaLocation="http://sumo.dlr.de/xsd/tripinfo_file.xsd">
    <tripinfo id="f_2.0" depart="0.00" departLane="193714501#0_0" departPos="5.10" departSpeed="0.00" departDelay="0.00" arrival="21.00" arrivalLane="422972291_0" arrivalPos="44.85" arrivalSpeed="27.39" duration="21.00" routeLength="394.76" waitingTime="0.00" waitingCount="0" stopTime="0.00" timeLoss="6.66" rerouteNo="0" devices="tripinfo_f_2.0" vType="type1" speedFactor="1.01" vaporized=""/>
    <tripinfo id="f_3.0" depart="3.00" departLane="193714501#0_0" departPos="5.10" departSpeed="0.00" departDelay="3.00" arrival="24.00" arrivalLane="422972291_0" arrivalPos="44.85" arrivalSpeed="29.20" duration="21.00" routeLength="394.76" waitingTime="0.00" waitingCount="0" stopTime="0.00" timeLoss="7.44" rerouteNo="0" devices="tripinfo_f_3.0" vType="type1" speedFactor="1.08" vaporized=""/>
    <tripinfo id="f_0.0" depart="0.00" departLane="-406769344#2_0" departPos="5.10" departSpeed="0.00" departDelay="0.00" arrival="33.00" arrivalLane="192748775_0" arrivalPos="327.83" arrivalSpeed="28.98" duration="33.00" routeLength="578.61" waitingTime="0.00" waitingCount="0" stopTime="0.00" timeLoss="5.37" rerouteNo="0" devices="tripinfo_f_0.0" vType="type1" speedFactor="1.06" vaporized=""/>
    <tripinfo id="f_6.0" depart="6.00" departLane="192748755#0_0" departPos="5.10" departSpeed="0.00" departDelay="6.00" arrival="35.00" arrivalLane="422972291_0" arrivalPos="44.85" arrivalSpeed="19.28" duration="29.00" routeLength="188.57" waitingTime="5.00" waitingCount="1" stopTime="0.00" timeLoss="18.64" rerouteNo="0" devices="tripinfo_f_6.0" vType="type1" speedFactor="1.05" vaporized=""/>
    <tripinfo id="f_5.0" depart="3.00" departLane="192748755#0_0" departPos="5.10" departSpeed="0.00" departDelay="3.00" arrival="37.00" arrivalLane="192748767#0_0" arrivalPos="97.24" arrivalSpeed="10.33" duration="34.00" routeLength="208.43" waitingTime="7.00" waitingCount="1" stopTime="0.00" timeLoss="15.14" rerouteNo="0" devices="tripinfo_f_5.0" vType="type1" speedFactor="0.83" vaporized=""/>
    <tripinfo id="f_6.1" depart="16.00" departLane="192748755#0_0" departPos="5.10" departSpeed="0.00" departDelay="5.71" arrival="39.00" arrivalLane="422972291_0" arrivalPos="44.85" arrivalSpeed="21.63" duration="23.00" routeLength="188.57" waitingTime="0.00" waitingCount="0" stopTime="0.00" timeLoss="10.85" rerouteNo="0" devices="tripinfo_f_6.1" vType="type1" speedFactor="0.93" vaporized=""/>
    <tripinfo id="f_5.1" depart="13.00" departLane="192748755#0_0" departPos="5.10" departSpeed="0.00" departDelay="2.71" arrival="40.00" arrivalLane="192748767#0_0" arrivalPos="97.24" arrivalSpeed="13.40" duration="27.00" routeLength="208.43" waitingTime="0.00" waitingCount="0" stopTime="0.00" timeLoss="10.47" rerouteNo="0" devices="tripinfo_f_5.1" vType="type1" speedFactor="0.99" vaporized=""/>
    <tripinfo id="f_4.0" depart="0.00" departLane="192748755#0_0" departPos="5.10" departSpeed="0.00" departDelay="0.00" arrival="46.00" arrivalLane="192748775_1" arrivalPos="327.83" arrivalSpeed="27.85" duration="46.00" routeLength="475.24" waitingTime="11.00" waitingCount="1" stopTime="0.00" timeLoss="23.22" rerouteNo="0" devices="tripinfo_f_4.0" vType="type1" speedFactor="1.03" vaporized=""/>
    <tripinfo id="f_5.2" depart="23.00" departLane="192748755#0_0" departPos="5.10" departSpeed="0.00" departDelay="2.43" arrival="46.00" arrivalLane="192748767#0_0" arrivalPos="97.24" arrivalSpeed="12.09" duration="23.00" routeLength="208.43" waitingTime="0.00" waitingCount="0" stopTime="0.00" timeLoss="4.78" rerouteNo="0" devices="tripinfo_f_5.2" vType="type1" speedFactor="0.89" vaporized=""/>
    <tripinfo id="f_4.1" depart="11.00" departLane="192748755#0_0" departPos="5.10" departSpeed="0.00" departDelay="0.71" arrival="47.00" arrivalLane="192748775_1" arrivalPos="327.83" arrivalSpeed="31.15" duration="36.00" routeLength="475.24" waitingTime="1.00" waitingCount="1" stopTime="0.00" timeLoss="15.54" rerouteNo="0" devices="tripinfo_f_4.1" vType="type1" speedFactor="1.12" vaporized=""/>
    <tripinfo id="f_2.1" depart="12.00" departLane="193714501#0_0" departPos="5.10" departSpeed="0.00" departDelay="1.71" arrival="48.00" arrivalLane="422972291_1" arrivalPos="44.85" arrivalSpeed="19.41" duration="36.00" routeLength="394.76" waitingTime="4.00" waitingCount="1" stopTime="0.00" timeLoss="21.98" rerouteNo="0" devices="tripinfo_f_2.1" vType="type1" speedFactor="1.03" vaporized=""/>
    <tripinfo id="f_3.1" depart="15.00" departLane="193714501#0_0" departPos="5.10" departSpeed="0.00" departDelay="4.71" arrival="51.00" arrivalLane="422972291_1" arrivalPos="44.85" arrivalSpeed="18.65" duration="36.00" routeLength="394.76" waitingTime="3.00" waitingCount="1" stopTime="0.00" timeLoss="22.03" rerouteNo="0" devices="tripinfo_f_3.1" vType="type1" speedFactor="1.05" vaporized=""/>
    <tripinfo id="f_4.2" depart="21.00" departLane="192748755#0_0" departPos="5.10" departSpeed="0.00" departDelay="0.43" arrival="51.00" arrivalLane="192748775_1" arrivalPos="327.83" arrivalSpeed="26.34" duration="30.00" routeLength="475.24" waitingTime="0.00" waitingCount="0" stopTime="0.00" timeLoss="6.16" rerouteNo="0" devices="tripinfo_f_4.2" vType="type1" speedFactor="0.97" vaporized=""/>
    <tripinfo id="f_2.2" depart="24.00" departLane="193714501#0_0" departPos="5.10" departSpeed="0.00" departDelay="3.43" arrival="52.00" arrivalLane="422972291_1" arrivalPos="44.85" arrivalSpeed="19.78" duration="28.00" routeLength="394.76" waitingTime="0.00" waitingCount="0" stopTime="0.00" timeLoss="13.93" rerouteNo="0" devices="tripinfo_f_2.2" vType="type1" speedFactor="1.02" vaporized=""/>
    <tripinfo id="f_7.0" depart="6.00" departLane="193714501#0_0" departPos="5.10" departSpeed="0.00" departDelay="6.00" arrival="54.00" arrivalLane="-192748755#2_0" arrivalPos="103.11" arrivalSpeed="11.34" duration="48.00" routeLength="437.50" waitingTime="11.00" waitingCount="1" stopTime="0.00" timeLoss="23.61" rerouteNo="0" devices="tripinfo_f_7.0" vType="type1" speedFactor="0.89" vaporized=""/>
    <tripinfo id="f_3.2" depart="27.00" departLane="193714501#0_0" departPos="5.10" departSpeed="0.00" departDelay="6.43" arrival="54.00" arrivalLane="422972291_1" arrivalPos="44.85" arrivalSpeed="21.67" duration="27.00" routeLength="394.76" waitingTime="0.00" waitingCount="0" stopTime="0.00" timeLoss="12.46" rerouteNo="0" devices="tripinfo_f_3.2" vType="type1" speedFactor="1.01" vaporized=""/>
    <tripinfo id="f_8.0" depart="9.00" departLane="193714501#0_0" departPos="5.10" departSpeed="0.00" departDelay="9.00" arrival="55.00" arrivalLane="192748767#0_0" arrivalPos="97.24" arrivalSpeed="12.99" duration="46.00" routeLength="433.67" waitingTime="9.00" waitingCount="1" stopTime="0.00" timeLoss="24.21" rerouteNo="0" devices="tripinfo_f_8.0" vType="type1" speedFactor="0.94" vaporized=""/>
    <tripinfo id="f_7.1" depart="18.00" departLane="193714501#0_0" departPos="5.10" departSpeed="0.00" departDelay="7.71" arrival="58.00" arrivalLane="-192748755#2_0" arrivalPos="103.11" arrivalSpeed="11.34" duration="40.00" routeLength="437.50" waitingTime="1.00" waitingCount="1" stopTime="0.00" timeLoss="15.69" rerouteNo="0" devices="tripinfo_f_7.1" vType="type1" speedFactor="0.88" vaporized=""/>
    <tripinfo id="f_8.1" depart="21.00" departLane="193714501#0_0" departPos="5.10" departSpeed="0.00" departDelay="10.71" arrival="59.00" arrivalLane="192748767#0_0" arrivalPos="97.24" arrivalSpeed="12.97" duration="38.00" routeLength="433.67" waitingTime="1.00" waitingCount="1" stopTime="0.00" timeLoss="16.36" rerouteNo="0" devices="tripinfo_f_8.1" vType="type1" speedFactor="0.94" vaporized=""/>
    <tripinfo id="f_0.1" depart="11.00" departLane="-406769344#2_0" departPos="5.10" departSpeed="0.00" departDelay="0.71" arrival="61.00" arrivalLane="192748775_0" arrivalPos="327.83" arrivalSpeed="23.00" duration="50.00" routeLength="578.61" waitingTime="6.00" waitingCount="1" stopTime="0.00" timeLoss="15.81" rerouteNo="0" devices="tripinfo_f_0.1" vType="type1" speedFactor="0.86" vaporized=""/>
    <tripinfo id="f_0.2" depart="21.00" departLane="-406769344#2_0" departPos="5.10" departSpeed="0.00" departDelay="0.43" arrival="62.00" arrivalLane="192748775_0" arrivalPos="327.83" arrivalSpeed="25.96" duration="41.00" routeLength="578.61" waitingTime="0.00" waitingCount="0" stopTime="0.00" timeLoss="10.20" rerouteNo="0" devices="tripinfo_f_0.2" vType="type1" speedFactor="0.94" vaporized=""/>
    <tripinfo id="f_6.2" depart="26.00" departLane="192748755#0_0" departPos="5.10" departSpeed="0.00" departDelay="5.43" arrival="63.00" arrivalLane="422972291_0" arrivalPos="44.85" arrivalSpeed="18.05" duration="37.00" routeLength="188.57" waitingTime="14.00" waitingCount="1" stopTime="0.00" timeLoss="23.81" rerouteNo="0" devices="tripinfo_f_6.2" vType="type1" speedFactor="0.83" vaporized=""/>
    <tripinfo id="f_0.3" depart="31.00" departLane="-406769344#2_0" departPos="5.10" departSpeed="0.00" departDelay="0.14" arrival="67.00" arrivalLane="192748775_0" arrivalPos="327.83" arrivalSpeed="26.07" duration="36.00" routeLength="578.61" waitingTime="0.00" waitingCount="0" stopTime="0.00" timeLoss="5.42" rerouteNo="0" devices="tripinfo_f_0.3" vType="type1" speedFactor="0.95" vaporized=""/>
    <tripinfo id="f_5.3" depart="33.00" departLane="192748755#0_0" departPos="5.10" departSpeed="0.00" departDelay="2.14" arrival="67.00" arrivalLane="192748767#0_0" arrivalPos="97.24" arrivalSpeed="13.72" duration="34.00" routeLength="208.43" waitingTime="9.00" waitingCount="1" stopTime="0.00" timeLoss="18.44" rerouteNo="0" devices="tripinfo_f_5.3" vType="type1" speedFactor="1.01" vaporized=""/>
    <tripinfo id="f_6.3" depart="36.00" departLane="192748755#0_0" departPos="5.10" departSpeed="0.00" departDelay="5.14" arrival="67.00" arrivalLane="422972291_0" arrivalPos="44.85" arrivalSpeed="20.38" duration="31.00" routeLength="188.57" waitingTime="9.00" waitingCount="1" stopTime="0.00" timeLoss="21.49" rerouteNo="0" devices="tripinfo_f_6.3" vType="type1" speedFactor="1.17" vaporized=""/>
    <tripinfo id="f_1.0" depart="3.00" departLane="-406769344#2_0" departPos="5.10" departSpeed="0.00" departDelay="3.00" arrival="70.00" arrivalLane="-192748755#2_1" arrivalPos="103.11" arrivalSpeed="12.20" duration="67.00" routeLength="363.38" waitingTime="28.00" waitingCount="1" stopTime="0.00" timeLoss="38.98" rerouteNo="0" devices="tripinfo_f_1.0" vType="type1" speedFactor="0.94" vaporized=""/>
    <tripinfo id="f_6.4" depart="46.00" departLane="192748755#0_0" departPos="5.10" departSpeed="0.00" departDelay="4.86" arrival="71.00" arrivalLane="422972291_0" arrivalPos="44.85" arrivalSpeed="21.42" duration="25.00" routeLength="188.57" waitingTime="1.00" waitingCount="1" stopTime="0.00" timeLoss="14.53" rerouteNo="0" devices="tripinfo_f_6.4" vType="type1" speedFactor="1.09" vaporized=""/>
    <tripinfo id="f_1.1" depart="14.00" departLane="-406769344#2_0" departPos="5.10" departSpeed="0.00" departDelay="3.71" arrival="72.00" arrivalLane="-192748755#2_1" arrivalPos="103.11" arrivalSpeed="13.99" duration="58.00" routeLength="363.38" waitingTime="20.00" waitingCount="1" stopTime="0.00" timeLoss="33.44" rerouteNo="0" devices="tripinfo_f_1.1" vType="type1" speedFactor="1.09" vaporized=""/>
    <tripinfo id="f_5.4" depart="43.00" departLane="192748755#0_0" departPos="5.10" departSpeed="0.00" departDelay="1.86" arrival="72.00" arrivalLane="192748767#0_0" arrivalPos="97.24" arrivalSpeed="12.39" duration="29.00" routeLength="208.43" waitingTime="3.00" waitingCount="1" stopTime="0.00" timeLoss="12.29" rerouteNo="0" devices="tripinfo_f_5.4" vType="type1" speedFactor="0.96" vaporized=""/>
    <tripinfo id="f_1.2" depart="24.00" departLane="-406769344#2_0" departPos="5.10" departSpeed="0.00" departDelay="3.43" arrival="73.00" arrivalLane="-192748755#2_1" arrivalPos="103.11" arrivalSpeed="15.13" duration="49.00" routeLength="363.38" waitingTime="14.00" waitingCount="1" stopTime="0.00" timeLoss="26.39" rerouteNo="0" devices="tripinfo_f_1.2" vType="type1" speedFactor="1.16" vaporized=""/>
    <tripinfo id="f_1.3" depart="34.00" departLane="-406769344#2_0" departPos="5.10" departSpeed="0.00" departDelay="3.14" arrival="75.00" arrivalLane="-192748755#2_1" arrivalPos="103.11" arrivalSpeed="15.44" duration="41.00" routeLength="363.38" waitingTime="4.00" waitingCount="1" stopTime="0.00" timeLoss="17.52" rerouteNo="0" devices="tripinfo_f_1.3" vType="type1" speedFactor="1.13" vaporized=""/>
    <tripinfo id="f_0.4" depart="42.00" departLane="-406769344#2_0" departPos="5.10" departSpeed="0.00" departDelay="0.86" arrival="77.00" arrivalLane="192748775_0" arrivalPos="327.83" arrivalSpeed="26.59" duration="35.00" routeLength="578.61" waitingTime="0.00" waitingCount="0" stopTime="0.00" timeLoss="4.67" rerouteNo="0" devices="tripinfo_f_0.4" vType="type1" speedFactor="0.97" vaporized=""/>
    <tripinfo id="f_1.4" depart="44.00" departLane="-406769344#2_0" departPos="5.10" departSpeed="0.00" departDelay="2.86" arrival="77.00" arrivalLane="-192748755#2_1" arrivalPos="103.11" arrivalSpeed="12.28" duration="33.00" routeLength="363.38" waitingTime="0.00" waitingCount="0" stopTime="0.00" timeLoss="10.62" rerouteNo="0" devices="tripinfo_f_1.4" vType="type1" speedFactor="1.18" vaporized=""/>
    <tripinfo id="f_2.3" depart="36.00" departLane="193714501#0_0" departPos="5.10" departSpeed="0.00" departDelay="5.14" arrival="79.00" arrivalLane="422972291_1" arrivalPos="44.85" arrivalSpeed="19.07" duration="43.00" routeLength="394.76" waitingTime="10.00" waitingCount="1" stopTime="0.00" timeLoss="27.28" rerouteNo="0" devices="tripinfo_f_2.3" vType="type1" speedFactor="0.93" vaporized=""/>
    <tripinfo id="f_3.3" depart="39.00" departLane="193714501#0_0" departPos="5.10" departSpeed="0.00" departDelay="8.14" arrival="80.00" arrivalLane="422972291_1" arrivalPos="44.85" arrivalSpeed="19.02" duration="41.00" routeLength="394.76" waitingTime="9.00" waitingCount="1" stopTime="0.00" timeLoss="28.91" rerouteNo="0" devices="tripinfo_f_3.3" vType="type1" speedFactor="1.18" vaporized=""/>
    <tripinfo id="f_2.4" depart="48.00" departLane="193714501#0_0" departPos="5.10" departSpeed="0.00" departDelay="6.86" arrival="82.00" arrivalLane="422972291_1" arrivalPos="44.85" arrivalSpeed="20.13" duration="34.00" routeLength="394.76" waitingTime="0.00" waitingCount="0" stopTime="0.00" timeLoss="20.81" rerouteNo="0" devices="tripinfo_f_2.4" vType="type1" speedFactor="1.10" vaporized=""/>
    <tripinfo id="f_7.2" depart="30.00" departLane="193714501#0_0" departPos="5.10" departSpeed="0.00" departDelay="9.43" arrival="84.00" arrivalLane="-192748755#2_0" arrivalPos="103.11" arrivalSpeed="11.09" duration="54.00" routeLength="437.50" waitingTime="17.00" waitingCount="1" stopTime="0.00" timeLoss="29.03" rerouteNo="0" devices="tripinfo_f_7.2" vType="type1" speedFactor="0.87" vaporized=""/>
    <tripinfo id="f_3.4" depart="51.00" departLane="193714501#0_0" departPos="5.10" departSpeed="0.00" departDelay="9.86" arrival="84.00" arrivalLane="422972291_1" arrivalPos="44.85" arrivalSpeed="21.48" duration="33.00" routeLength="394.76" waitingTime="0.00" waitingCount="0" stopTime="0.00" timeLoss="16.57" rerouteNo="0" devices="tripinfo_f_3.4" vType="type1" speedFactor="0.90" vaporized=""/>
    <tripinfo id="f_0.5" depart="52.00" departLane="-406769344#2_0" departPos="5.10" departSpeed="0.00" departDelay="0.57" arrival="84.00" arrivalLane="192748775_0" arrivalPos="327.83" arrivalSpeed="29.20" duration="32.00" routeLength="578.61" waitingTime="0.00" waitingCount="0" stopTime="0.00" timeLoss="5.77" rerouteNo="0" devices="tripinfo_f_0.5" vType="type1" speedFactor="1.09" vaporized=""/>
    <tripinfo id="f_8.2" depart="33.00" departLane="193714501#0_0" departPos="5.10" departSpeed="0.00" departDelay="12.43" arrival="85.00" arrivalLane="192748767#0_0" arrivalPos="97.24" arrivalSpeed="11.46" duration="52.00" routeLength="433.67" waitingTime="15.00" waitingCount="1" stopTime="0.00" timeLoss="29.99" rerouteNo="0" devices="tripinfo_f_8.2" vType="type1" speedFactor="0.92" vaporized=""/>
    <tripinfo id="f_2.5" depart="60.00" departLane="193714501#0_0" departPos="5.10" departSpeed="0.00" departDelay="8.57" arrival="85.00" arrivalLane="422972291_1" arrivalPos="44.85" arrivalSpeed="21.94" duration="25.00" routeLength="394.76" waitingTime="0.00" waitingCount="0" stopTime="0.00" timeLoss="9.18" rerouteNo="0" devices="tripinfo_f_2.5" vType="type1" speedFactor="0.90" vaporized=""/>
    <tripinfo id="f_7.3" depart="42.00" departLane="193714501#0_0" departPos="5.10" departSpeed="0.00" departDelay="11.14" arrival="87.00" arrivalLane="-192748755#2_0" arrivalPos="103.11" arrivalSpeed="12.67" duration="45.00" routeLength="437.50" waitingTime="7.00" waitingCount="1" stopTime="0.00" timeLoss="22.54" rerouteNo="0" devices="tripinfo_f_7.3" vType="type1" speedFactor="0.99" vaporized=""/>
    <tripinfo id="f_8.3" depart="45.00" departLane="193714501#0_0" departPos="5.10" departSpeed="0.00" departDelay="14.14" arrival="88.00" arrivalLane="192748767#0_0" arrivalPos="97.24" arrivalSpeed="13.66" duration="43.00" routeLength="433.67" waitingTime="5.00" waitingCount="1" stopTime="0.00" timeLoss="22.60" rerouteNo="0" devices="tripinfo_f_8.3" vType="type1" speedFactor="1.02" vaporized=""/>
    <tripinfo id="f_7.4" depart="54.00" departLane="193714501#0_0" departPos="5.10" departSpeed="0.00" departDelay="12.86" arrival="91.00" arrivalLane="-192748755#2_0" arrivalPos="103.11" arrivalSpeed="13.33" duration="37.00" routeLength="437.50" waitingTime="0.00" waitingCount="0" stopTime="0.00" timeLoss="15.06" rerouteNo="0" devices="tripinfo_f_7.4" vType="type1" speedFactor="1.04" vaporized=""/>
    <tripinfo id="f_6.5" depart="57.00" departLane="192748755#0_0" departPos="5.10" departSpeed="0.00" departDelay="5.57" arrival="96.00" arrivalLane="422972291_0" arrivalPos="44.85" arrivalSpeed="19.11" duration="39.00" routeLength="188.57" waitingTime="14.00" waitingCount="1" stopTime="0.00" timeLoss="29.35" rerouteNo="0" devices="tripinfo_f_6.5" vType="type1" speedFactor="1.17" vaporized=""/>
    <tripinfo id="f_5.5" depart="54.00" departLane="192748755#0_0" departPos="5.10" departSpeed="0.00" departDelay="2.57" arrival="97.00" arrivalLane="192748767#0_0" arrivalPos="97.24" arrivalSpeed="11.15" duration="43.00" routeLength="208.43" waitingTime="16.00" waitingCount="1" stopTime="0.00" timeLoss="24.31" rerouteNo="0" devices="tripinfo_f_5.5" vType="type1" speedFactor="0.85" vaporized=""/>
    <tripinfo id="f_6.6" depart="67.00" departLane="192748755#0_0" departPos="5.10" departSpeed="0.00" departDelay="5.28" arrival="99.00" arrivalLane="422972291_0" arrivalPos="44.85" arrivalSpeed="20.09" duration="32.00" routeLength="188.57" waitingTime="9.00" waitingCount="1" stopTime="0.00" timeLoss="21.90" rerouteNo="0" devices="tripinfo_f_6.6" vType="type1" speedFactor="1.08" vaporized=""/>
    <tripinfo id="f_5.6" depart="64.00" departLane="192748755#0_0" departPos="5.10" departSpeed="0.00" departDelay="2.28" arrival="101.00" arrivalLane="192748767#0_0" arrivalPos="97.24" arrivalSpeed="12.36" duration="37.00" routeLength="208.43" waitingTime="10.00" waitingCount="1" stopTime="0.00" timeLoss="20.34" rerouteNo="0" devices="tripinfo_f_5.6" vType="type1" speedFactor="0.97" vaporized=""/>
    <tripinfo id="f_6.7" depart="79.00" departLane="192748755#0_0" departPos="5.10" departSpeed="0.00" departDelay="7.00" arrival="103.00" arrivalLane="422972291_0" arrivalPos="44.85" arrivalSpeed="20.70" duration="24.00" routeLength="188.57" waitingTime="0.00" waitingCount="0" stopTime="0.00" timeLoss="13.55" rerouteNo="0" devices="tripinfo_f_6.7" vType="type1" speedFactor="1.02" vaporized=""/>
    <tripinfo id="f_4.3" depart="31.00" departLane="192748755#0_0" departPos="5.10" departSpeed="0.00" departDelay="0.14" arrival="104.00" arrivalLane="192748775_1" arrivalPos="327.83" arrivalSpeed="31.88" duration="73.00" routeLength="475.24" waitingTime="40.00" waitingCount="1" stopTime="0.00" timeLoss="53.34" rerouteNo="0" devices="tripinfo_f_4.3" vType="type1" speedFactor="1.15" vaporized=""/>
    <tripinfo id="f_5.7" depart="76.00" departLane="192748755#0_0" departPos="5.10" departSpeed="0.00" departDelay="4.00" arrival="104.00" arrivalLane="192748767#0_0" arrivalPos="97.24" arrivalSpeed="14.33" duration="28.00" routeLength="208.43" waitingTime="2.00" waitingCount="1" stopTime="0.00" timeLoss="12.80" rerouteNo="0" devices="tripinfo_f_5.7" vType="type1" speedFactor="1.04" vaporized=""/>
    <tripinfo id="f_4.4" depart="42.00" departLane="192748755#0_0" departPos="5.10" departSpeed="0.00" departDelay="0.86" arrival="107.00" arrivalLane="192748775_1" arrivalPos="327.83" arrivalSpeed="27.76" duration="65.00" routeLength="475.24" waitingTime="31.00" waitingCount="1" stopTime="0.00" timeLoss="43.14" rerouteNo="0" devices="tripinfo_f_4.4" vType="type1" speedFactor="1.03" vaporized=""/>
    <tripinfo id="f_6.8" depart="88.00" departLane="192748755#0_0" departPos="5.10" departSpeed="0.00" departDelay="5.71" arrival="108.00" arrivalLane="422972291_0" arrivalPos="44.85" arrivalSpeed="19.75" duration="20.00" routeLength="188.57" waitingTime="0.00" waitingCount="0" stopTime="0.00" timeLoss="9.09" rerouteNo="0" devices="tripinfo_f_6.8" vType="type1" speedFactor="1.01" vaporized=""/>
    <tripinfo id="f_5.8" depart="85.00" departLane="192748755#0_0" departPos="5.10" departSpeed="0.00" departDelay="2.71" arrival="109.00" arrivalLane="192748767#0_0" arrivalPos="97.24" arrivalSpeed="12.99" duration="24.00" routeLength="208.43" waitingTime="0.00" waitingCount="0" stopTime="0.00" timeLoss="8.05" rerouteNo="0" devices="tripinfo_f_5.8" vType="type1" speedFactor="0.98" vaporized=""/>
    <tripinfo id="f_4.5" depart="52.00" departLane="192748755#0_0" departPos="5.10" departSpeed="0.00" departDelay="0.57" arrival="113.00" arrivalLane="192748775_1" arrivalPos="327.83" arrivalSpeed="23.17" duration="61.00" routeLength="475.24" waitingTime="22.00" waitingCount="1" stopTime="0.00" timeLoss="33.42" rerouteNo="0" devices="tripinfo_f_4.5" vType="type1" speedFactor="0.85" vaporized=""/>
    <tripinfo id="f_4.6" depart="62.00" departLane="192748755#0_0" departPos="5.10" departSpeed="0.00" departDelay="0.28" arrival="114.00" arrivalLane="192748775_1" arrivalPos="327.83" arrivalSpeed="24.49" duration="52.00" routeLength="475.24" waitingTime="14.00" waitingCount="1" stopTime="0.00" timeLoss="29.48" rerouteNo="0" devices="tripinfo_f_4.6" vType="type1" speedFactor="1.02" vaporized=""/>
    <tripinfo id="f_6.9" depart="98.00" departLane="192748755#0_0" departPos="5.10" departSpeed="0.00" departDelay="5.43" arrival="114.00" arrivalLane="422972291_0" arrivalPos="44.85" arrivalSpeed="23.43" duration="16.00" routeLength="188.57" waitingTime="0.00" waitingCount="0" stopTime="0.00" timeLoss="5.07" rerouteNo="0" devices="tripinfo_f_6.9" vType="type1" speedFactor="1.04" vaporized=""/>
    <tripinfo id="f_1.5" depart="55.00" departLane="-406769344#2_0" departPos="5.10" departSpeed="0.00" departDelay="3.57" arrival="115.00" arrivalLane="-192748755#2_1" arrivalPos="103.11" arrivalSpeed="12.59" duration="60.00" routeLength="363.38" waitingTime="23.00" waitingCount="1" stopTime="0.00" timeLoss="33.03" rerouteNo="0" devices="tripinfo_f_1.5" vType="type1" speedFactor="1.00" vaporized=""/>
    <tripinfo id="f_4.7" depart="73.00" departLane="192748755#0_0" departPos="5.10" departSpeed="0.00" departDelay="1.00" arrival="116.00" arrivalLane="192748775_1" arrivalPos="327.83" arrivalSpeed="24.45" duration="43.00" routeLength="475.24" waitingTime="4.00" waitingCount="1" stopTime="0.00" timeLoss="17.36" rerouteNo="0" devices="tripinfo_f_4.7" vType="type1" speedFactor="0.91" vaporized=""/>
    <tripinfo id="f_5.9" depart="95.00" departLane="192748755#0_0" departPos="5.10" departSpeed="0.00" departDelay="2.43" arrival="116.00" arrivalLane="192748767#0_0" arrivalPos="97.24" arrivalSpeed="13.13" duration="21.00" routeLength="208.43" waitingTime="0.00" waitingCount="0" stopTime="0.00" timeLoss="4.50" rerouteNo="0" devices="tripinfo_f_5.9" vType="type1" speedFactor="1.00" vaporized=""/>
    <tripinfo id="f_1.6" depart="65.00" departLane="-406769344#2_0" departPos="5.10" departSpeed="0.00" departDelay="3.28" arrival="117.00" arrivalLane="-192748755#2_1" arrivalPos="103.11" arrivalSpeed="13.33" duration="52.00" routeLength="363.38" waitingTime="14.00" waitingCount="1" stopTime="0.00" timeLoss="24.82" rerouteNo="0" devices="tripinfo_f_1.6" vType="type1" speedFactor="1.00" vaporized=""/>
    <tripinfo id="f_1.7" depart="76.00" departLane="-406769344#2_0" departPos="5.10" departSpeed="0.00" departDelay="4.00" arrival="119.00" arrivalLane="-192748755#2_1" arrivalPos="103.11" arrivalSpeed="12.91" duration="43.00" routeLength="363.38" waitingTime="4.00" waitingCount="1" stopTime="0.00" timeLoss="14.63" rerouteNo="0" devices="tripinfo_f_1.7" vType="type1" speedFactor="0.94" vaporized=""/>
    <tripinfo id="f_0.6" depart="62.00" departLane="-406769344#2_0" departPos="5.10" departSpeed="0.00" departDelay="0.28" arrival="120.00" arrivalLane="192748775_0" arrivalPos="327.83" arrivalSpeed="27.81" duration="58.00" routeLength="578.61" waitingTime="16.00" waitingCount="1" stopTime="0.00" timeLoss="29.09" rerouteNo="0" devices="tripinfo_f_0.6" vType="type1" speedFactor="1.00" vaporized=""/>
    <tripinfo id="f_1.8" depart="86.00" departLane="-406769344#2_0" departPos="5.10" departSpeed="0.00" departDelay="3.71" arrival="121.00" arrivalLane="-192748755#2_1" arrivalPos="103.11" arrivalSpeed="14.07" duration="35.00" routeLength="363.38" waitingTime="0.00" waitingCount="0" stopTime="0.00" timeLoss="9.46" rerouteNo="0" devices="tripinfo_f_1.8" vType="type1" speedFactor="1.06" vaporized=""/>
    <tripinfo id="f_0.7" depart="73.00" departLane="-406769344#2_0" departPos="5.10" departSpeed="0.00" departDelay="1.00" arrival="122.00" arrivalLane="192748775_0" arrivalPos="327.83" arrivalSpeed="26.44" duration="49.00" routeLength="578.61" waitingTime="6.00" waitingCount="1" stopTime="0.00" timeLoss="19.18" rerouteNo="0" devices="tripinfo_f_0.7" vType="type1" speedFactor="0.99" vaporized=""/>
    <tripinfo id="f_3.5" depart="63.00" departLane="193714501#0_0" departPos="5.10" departSpeed="0.00" departDelay="11.57" arrival="123.00" arrivalLane="422972291_1" arrivalPos="44.85" arrivalSpeed="18.95" duration="60.00" routeLength="394.76" waitingTime="28.00" waitingCount="1" stopTime="0.00" timeLoss="43.49" rerouteNo="0" devices="tripinfo_f_3.5" vType="type1" speedFactor="0.88" vaporized=""/>
    <tripinfo id="f_0.8" depart="83.00" departLane="-406769344#2_0" departPos="5.10" departSpeed="0.00" departDelay="0.71" arrival="124.00" arrivalLane="192748775_0" arrivalPos="327.83" arrivalSpeed="26.08" duration="41.00" routeLength="578.61" waitingTime="0.00" waitingCount="0" stopTime="0.00" timeLoss="9.75" rerouteNo="0" devices="tripinfo_f_0.8" vType="type1" speedFactor="0.94" vaporized=""/>
    <tripinfo id="f_2.6" depart="72.00" departLane="193714501#0_0" departPos="5.10" departSpeed="0.00" departDelay="10.28" arrival="126.00" arrivalLane="422972291_1" arrivalPos="44.85" arrivalSpeed="19.92" duration="54.00" routeLength="394.76" waitingTime="21.00" waitingCount="1" stopTime="0.00" timeLoss="37.50" rerouteNo="0" devices="tripinfo_f_2.6" vType="type1" speedFactor="0.90" vaporized=""/>
    <tripinfo id="f_8.4" depart="57.00" departLane="193714501#0_0" departPos="5.10" departSpeed="0.00" departDelay="15.86" arrival="127.00" arrivalLane="192748767#0_0" arrivalPos="97.24" arrivalSpeed="13.44" duration="70.00" routeLength="433.67" waitingTime="31.00" waitingCount="1" stopTime="0.00" timeLoss="50.41" rerouteNo="0" devices="tripinfo_f_8.4" vType="type1" speedFactor="1.04" vaporized=""/>
    <tripinfo id="f_3.6" depart="74.00" departLane="193714501#0_0" departPos="5.10" departSpeed="0.00" departDelay="12.28" arrival="127.00" arrivalLane="422972291_1" arrivalPos="44.85" arrivalSpeed="20.98" duration="53.00" routeLength="394.76" waitingTime="20.00" waitingCount="1" stopTime="0.00" timeLoss="40.36" rerouteNo="0" devices="tripinfo_f_3.6" vType="type1" speedFactor="1.14" vaporized=""/>
    <tripinfo id="f_0.9" depart="93.00" departLane="-406769344#2_0" departPos="5.10" departSpeed="0.00" departDelay="0.43" arrival="128.00" arrivalLane="192748775_0" arrivalPos="327.83" arrivalSpeed="27.36" duration="35.00" routeLength="578.61" waitingTime="0.00" waitingCount="0" stopTime="0.00" timeLoss="5.69" rerouteNo="0" devices="tripinfo_f_0.9" vType="type1" speedFactor="1.00" vaporized=""/>
    <tripinfo id="f_2.7" depart="84.00" departLane="193714501#0_0" departPos="5.10" departSpeed="0.00" departDelay="12.00" arrival="129.00" arrivalLane="422972291_1" arrivalPos="44.85" arrivalSpeed="20.54" duration="45.00" routeLength="394.76" waitingTime="11.00" waitingCount="1" stopTime="0.00" timeLoss="28.49" rerouteNo="0" devices="tripinfo_f_2.7" vType="type1" speedFactor="0.88" vaporized=""/>