<?xml version="1.0" encoding="UTF-8"?>

<!-- generated on 2024-04-22 18:07:19 by Eclipse SUMO sumo Version 1.19.0
<configuration xmlns:xsi="http://www.w3.org/2001/XMLSchema-instance" xsi:noNamespaceSchemaLocation="http://sumo.dlr.de/xsd/sumoConfiguration.xsd">

    <input>
        <net-file value="./Simulation/osm.net.xml"/>
        <route-files value="./Simulation/demand.rou.xml"/>
        <additional-files value="./Simulation/detectors.xml"/>
    </input>

    <output>
        <tripinfo-output value="tripinfo.xml"/>
    </output>

    <processing>
        <waiting-time-memory value="2000"/>
    </processing>

    <report>
        <no-warnings value="true"/>
        <duration-log.disable value="true"/>
        <no-step-log value="true"/>
    </report>

    <traci_server>
        <remote-port value="63012"/>
    </traci_server>

    <gui_only>
        <gui-settings-file value="./Simulation/viewsettings.xml"/>
        <quit-on-end value="true"/>
        <start value="false"/>
    </gui_only>

</configuration>
-->

<tripinfos xmlns:xsi="http://www.w3.org/2001/XMLSchema-instance" xsi:noNamespaceSchemaLocation="http://sumo.dlr.de/xsd/tripinfo_file.xsd">
    <tripinfo id="f_6.0" depart="6.00" departLane="192748755#0_0" departPos="5.10" departSpeed="0.00" departDelay="6.00" arrival="24.00" arrivalLane="422972291_0" arrivalPos="44.85" arrivalSpeed="20.11" duration="18.00" routeLength="188.57" waitingTime="0.00" waitingCount="0" stopTime="0.00" timeLoss="7.42" rerouteNo="0" devices="tripinfo_f_6.0" vType="type1" speedFactor="1.05" vaporized=""/>
    <tripinfo id="f_5.0" depart="3.00" departLane="192748755#0_0" departPos="5.10" departSpeed="0.00" departDelay="3.00" arrival="26.00" arrivalLane="192748767#0_0" arrivalPos="97.24" arrivalSpeed="10.53" duration="23.00" routeLength="208.43" waitingTime="0.00" waitingCount="0" stopTime="0.00" timeLoss="4.17" rerouteNo="0" devices="tripinfo_f_5.0" vType="type1" speedFactor="0.83" vaporized=""/>
    <tripinfo id="f_6.1" depart="15.00" departLane="192748755#0_0" departPos="5.10" departSpeed="0.00" departDelay="7.00" arrival="31.00" arrivalLane="422972291_0" arrivalPos="44.85" arrivalSpeed="21.84" duration="16.00" routeLength="188.57" waitingTime="0.00" waitingCount="0" stopTime="0.00" timeLoss="4.66" rerouteNo="0" devices="tripinfo_f_6.1" vType="type1" speedFactor="0.93" vaporized=""/>
    <tripinfo id="f_0.0" depart="0.00" departLane="-406769344#2_0" departPos="5.10" departSpeed="0.00" departDelay="0.00" arrival="33.00" arrivalLane="192748775_0" arrivalPos="327.83" arrivalSpeed="28.98" duration="33.00" routeLength="578.61" waitingTime="0.00" waitingCount="0" stopTime="0.00" timeLoss="5.29" rerouteNo="0" devices="tripinfo_f_0.0" vType="type1" speedFactor="1.06" vaporized=""/>
    <tripinfo id="f_5.1" depart="12.00" departLane="192748755#0_0" departPos="5.10" departSpeed="0.00" departDelay="4.00" arrival="33.00" arrivalLane="192748767#0_0" arrivalPos="97.24" arrivalSpeed="13.21" duration="21.00" routeLength="208.43" waitingTime="0.00" waitingCount="0" stopTime="0.00" timeLoss="5.06" rerouteNo="0" devices="tripinfo_f_5.1" vType="type1" speedFactor="0.99" vaporized=""/>
    <tripinfo id="f_1.0" depart="3.00" departLane="-406769344#2_0" departPos="5.10" departSpeed="0.00" departDelay="3.00" arrival="36.00" arrivalLane="-192748755#2_1" arrivalPos="103.11" arrivalSpeed="11.75" duration="33.00" routeLength="363.38" waitingTime="0.00" waitingCount="0" stopTime="0.00" timeLoss="4.40" rerouteNo="0" devices="tripinfo_f_1.0" vType="type1" speedFactor="0.94" vaporized=""/>
    <tripinfo id="f_1.1" depart="11.00" departLane="-406769344#2_0" departPos="5.10" departSpeed="0.00" departDelay="3.00" arrival="40.00" arrivalLane="-192748755#2_1" arrivalPos="103.11" arrivalSpeed="15.14" duration="29.00" routeLength="363.38" waitingTime="0.00" waitingCount="0" stopTime="0.00" timeLoss="4.39" rerouteNo="0" devices="tripinfo_f_1.1" vType="type1" speedFactor="1.09" vaporized=""/>
    <tripinfo id="f_6.2" depart="23.00" departLane="192748755#0_0" departPos="5.10" departSpeed="0.00" departDelay="7.00" arrival="40.00" arrivalLane="422972291_0" arrivalPos="44.85" arrivalSpeed="22.60" duration="17.00" routeLength="188.57" waitingTime="0.00" waitingCount="0" stopTime="0.00" timeLoss="3.52" rerouteNo="0" devices="tripinfo_f_6.2" vType="type1" speedFactor="0.83" vaporized=""/>
    <tripinfo id="f_5.2" depart="20.00" departLane="192748755#0_0" departPos="5.10" departSpeed="0.00" departDelay="4.00" arrival="42.00" arrivalLane="192748767#0_0" arrivalPos="97.24" arrivalSpeed="11.86" duration="22.00" routeLength="208.43" waitingTime="0.00" waitingCount="0" stopTime="0.00" timeLoss="3.63" rerouteNo="0" devices="tripinfo_f_5.2" vType="type1" speedFactor="0.89" vaporized=""/>
    <tripinfo id="f_1.2" depart="19.00" departLane="-406769344#2_0" departPos="5.10" departSpeed="0.00" departDelay="3.00" arrival="46.00" arrivalLane="-192748755#2_1" arrivalPos="103.11" arrivalSpeed="15.89" duration="27.00" routeLength="363.38" waitingTime="0.00" waitingCount="0" stopTime="0.00" timeLoss="4.26" rerouteNo="0" devices="tripinfo_f_1.2" vType="type1" speedFactor="1.16" vaporized=""/>
    <tripinfo id="f_6.3" depart="31.00" departLane="192748755#0_0" departPos="5.10" departSpeed="0.00" departDelay="7.00" arrival="46.00" arrivalLane="422972291_0" arrivalPos="44.85" arrivalSpeed="24.03" duration="15.00" routeLength="188.57" waitingTime="0.00" waitingCount="0" stopTime="0.00" timeLoss="5.92" rerouteNo="0" devices="tripinfo_f_6.3" vType="type1" speedFactor="1.17" vaporized=""/>
    <tripinfo id="f_0.1" depart="8.00" departLane="-406769344#2_0" departPos="5.10" departSpeed="0.00" departDelay="0.00" arrival="47.00" arrivalLane="192748775_0" arrivalPos="327.83" arrivalSpeed="23.01" duration="39.00" routeLength="578.61" waitingTime="0.00" waitingCount="0" stopTime="0.00" timeLoss="5.50" rerouteNo="0" devices="tripinfo_f_0.1" vType="type1" speedFactor="0.86" vaporized=""/>
    <tripinfo id="f_5.3" depart="28.00" departLane="192748755#0_0" departPos="5.10" departSpeed="0.00" departDelay="4.00" arrival="48.00" arrivalLane="192748767#0_0" arrivalPos="97.24" arrivalSpeed="13.01" duration="20.00" routeLength="208.43" waitingTime="0.00" waitingCount="0" stopTime="0.00" timeLoss="4.25" rerouteNo="0" devices="tripinfo_f_5.3" vType="type1" speedFactor="1.01" vaporized=""/>
    <tripinfo id="f_0.2" depart="16.00" departLane="-406769344#2_0" departPos="5.10" departSpeed="0.00" departDelay="0.00" arrival="52.00" arrivalLane="192748775_0" arrivalPos="327.83" arrivalSpeed="25.05" duration="36.00" routeLength="578.61" waitingTime="0.00" waitingCount="0" stopTime="0.00" timeLoss="4.65" rerouteNo="0" devices="tripinfo_f_0.2" vType="type1" speedFactor="0.94" vaporized=""/>
    <tripinfo id="f_1.3" depart="27.00" departLane="-406769344#2_0" departPos="5.10" departSpeed="0.00" departDelay="3.00" arrival="55.00" arrivalLane="-192748755#2_1" arrivalPos="103.11" arrivalSpeed="15.13" duration="28.00" routeLength="363.38" waitingTime="0.00" waitingCount="0" stopTime="0.00" timeLoss="4.20" rerouteNo="0" devices="tripinfo_f_1.3" vType="type1" speedFactor="1.13" vaporized=""/>
    <tripinfo id="f_6.4" depart="39.00" departLane="192748755#0_0" departPos="5.10" departSpeed="0.00" departDelay="7.00" arrival="55.00" arrivalLane="422972291_0" arrivalPos="44.85" arrivalSpeed="22.66" duration="16.00" routeLength="188.57" waitingTime="0.00" waitingCount="0" stopTime="0.00" timeLoss="5.71" rerouteNo="0" devices="tripinfo_f_6.4" vType="type1" speedFactor="1.09" vaporized=""/>
    <tripinfo id="f_5.4" depart="36.00" departLane="192748755#0_0" departPos="5.10" departSpeed="0.00" departDelay="4.00" arrival="57.00" arrivalLane="192748767#0_0" arrivalPos="97.24" arrivalSpeed="13.19" duration="21.00" routeLength="208.43" waitingTime="0.00" waitingCount="0" stopTime="0.00" timeLoss="3.83" rerouteNo="0" devices="tripinfo_f_5.4" vType="type1" speedFactor="0.96" vaporized=""/>
    <tripinfo id="f_0.3" depart="24.00" departLane="-406769344#2_0" departPos="5.10" departSpeed="0.00" departDelay="0.00" arrival="60.00" arrivalLane="192748775_0" arrivalPos="327.83" arrivalSpeed="25.82" duration="36.00" routeLength="578.61" waitingTime="0.00" waitingCount="0" stopTime="0.00" timeLoss="5.10" rerouteNo="0" devices="tripinfo_f_0.3" vType="type1" speedFactor="0.95" vaporized=""/>
    <tripinfo id="f_6.5" depart="46.00" departLane="192748755#0_0" departPos="5.10" departSpeed="0.00" departDelay="6.00" arrival="64.00" arrivalLane="422972291_0" arrivalPos="44.85" arrivalSpeed="20.01" duration="18.00" routeLength="188.57" waitingTime="0.00" waitingCount="0" stopTime="0.00" timeLoss="8.72" rerouteNo="0" devices="tripinfo_f_6.5" vType="type1" speedFactor="1.17" vaporized=""/>
    <tripinfo id="f_5.5" depart="43.00" departLane="192748755#0_0" departPos="5.10" departSpeed="0.00" departDelay="3.00" arrival="66.00" arrivalLane="192748767#0_0" arrivalPos="97.24" arrivalSpeed="10.79" duration="23.00" routeLength="208.43" waitingTime="0.00" waitingCount="0" stopTime="0.00" timeLoss="4.95" rerouteNo="0" devices="tripinfo_f_5.5" vType="type1" speedFactor="0.85" vaporized=""/>
    <tripinfo id="f_6.6" depart="54.00" departLane="192748755#0_0" departPos="5.10" departSpeed="0.00" departDelay="6.00" arrival="70.00" arrivalLane="422972291_0" arrivalPos="44.85" arrivalSpeed="23.96" duration="16.00" routeLength="188.57" waitingTime="0.00" waitingCount="0" stopTime="0.00" timeLoss="5.70" rerouteNo="0" devices="tripinfo_f_6.6" vType="type1" speedFactor="1.08" vaporized=""/>
    <tripinfo id="f_4.0" depart="0.00" departLane="192748755#0_0" departPos="5.10" departSpeed="0.00" departDelay="0.00" arrival="71.00" arrivalLane="192748775_1" arrivalPos="327.83" arrivalSpeed="27.33" duration="71.00" routeLength="475.24" waitingTime="36.00" waitingCount="1" stopTime="0.00" timeLoss="48.03" rerouteNo="0" devices="tripinfo_f_4.0" vType="type1" speedFactor="1.03" vaporized=""/>
    <tripinfo id="f_5.6" depart="51.00" departLane="192748755#0_0" departPos="5.10" departSpeed="0.00" departDelay="3.00" arrival="71.00" arrivalLane="192748767#0_0" arrivalPos="97.24" arrivalSpeed="12.96" duration="20.00" routeLength="208.43" waitingTime="0.00" waitingCount="0" stopTime="0.00" timeLoss="3.71" rerouteNo="0" devices="tripinfo_f_5.6" vType="type1" speedFactor="0.97" vaporized=""/>
    <tripinfo id="f_4.1" depart="9.00" departLane="192748755#0_0" departPos="5.10" departSpeed="0.00" departDelay="1.00" arrival="72.00" arrivalLane="192748775_1" arrivalPos="327.83" arrivalSpeed="30.57" duration="63.00" routeLength="475.24" waitingTime="28.00" waitingCount="1" stopTime="0.00" timeLoss="42.73" rerouteNo="0" devices="tripinfo_f_4.1" vType="type1" speedFactor="1.12" vaporized=""/>
    <tripinfo id="f_4.2" depart="18.00" departLane="192748755#0_0" departPos="5.10" departSpeed="0.00" departDelay="2.00" arrival="76.00" arrivalLane="192748775_1" arrivalPos="327.83" arrivalSpeed="26.34" duration="58.00" routeLength="475.24" waitingTime="21.00" waitingCount="1" stopTime="0.00" timeLoss="33.68" rerouteNo="0" devices="tripinfo_f_4.2" vType="type1" speedFactor="0.97" vaporized=""/>
    <tripinfo id="f_4.3" depart="26.00" departLane="192748755#0_0" departPos="5.10" departSpeed="0.00" departDelay="2.00" arrival="77.00" arrivalLane="192748775_1" arrivalPos="327.83" arrivalSpeed="28.76" duration="51.00" routeLength="475.24" waitingTime="14.00" waitingCount="1" stopTime="0.00" timeLoss="30.75" rerouteNo="0" devices="tripinfo_f_4.3" vType="type1" speedFactor="1.15" vaporized=""/>
    <tripinfo id="f_4.4" depart="34.00" departLane="192748755#0_0" departPos="5.10" departSpeed="0.00" departDelay="2.00" arrival="78.00" arrivalLane="192748775_1" arrivalPos="327.83" arrivalSpeed="28.05" duration="44.00" routeLength="475.24" waitingTime="9.00" waitingCount="1" stopTime="0.00" timeLoss="22.16" rerouteNo="0" devices="tripinfo_f_4.4" vType="type1" speedFactor="1.03" vaporized=""/>
    <tripinfo id="f_5.7" depart="59.00" departLane="192748755#0_0" departPos="5.10" departSpeed="0.00" departDelay="3.00" arrival="78.00" arrivalLane="192748767#0_0" arrivalPos="97.24" arrivalSpeed="13.90" duration="19.00" routeLength="208.43" waitingTime="0.00" waitingCount="0" stopTime="0.00" timeLoss="3.88" rerouteNo="0" devices="tripinfo_f_5.7" vType="type1" speedFactor="1.04" vaporized=""/>
    <tripinfo id="f_6.7" depart="62.00" departLane="192748755#0_0" departPos="5.10" departSpeed="0.00" departDelay="6.00" arrival="78.00" arrivalLane="422972291_0" arrivalPos="44.85" arrivalSpeed="23.34" duration="16.00" routeLength="188.57" waitingTime="0.00" waitingCount="0" stopTime="0.00" timeLoss="4.84" rerouteNo="0" devices="tripinfo_f_6.7" vType="type1" speedFactor="1.02" vaporized=""/>
    <tripinfo id="f_4.5" depart="42.00" departLane="192748755#0_0" departPos="5.10" departSpeed="0.00" departDelay="2.00" arrival="83.00" arrivalLane="192748775_1" arrivalPos="327.83" arrivalSpeed="22.87" duration="41.00" routeLength="475.24" waitingTime="2.00" waitingCount="1" stopTime="0.00" timeLoss="14.18" rerouteNo="0" devices="tripinfo_f_4.5" vType="type1" speedFactor="0.85" vaporized=""/>
    <tripinfo id="f_4.6" depart="49.00" departLane="192748755#0_0" departPos="5.10" departSpeed="0.00" departDelay="1.00" arrival="85.00" arrivalLane="192748775_1" arrivalPos="327.83" arrivalSpeed="27.38" duration="36.00" routeLength="475.24" waitingTime="0.00" waitingCount="0" stopTime="0.00" timeLoss="13.12" rerouteNo="0" devices="tripinfo_f_4.6" vType="type1" speedFactor="1.02" vaporized=""/>
    <tripinfo id="f_6.8" depart="69.00" departLane="192748755#0_0" departPos="5.10" departSpeed="0.00" departDelay="5.00" arrival="86.00" arrivalLane="422972291_0" arrivalPos="44.85" arrivalSpeed="21.19" duration="17.00" routeLength="188.57" waitingTime="0.00" waitingCount="0" stopTime="0.00" timeLoss="5.93" rerouteNo="0" devices="tripinfo_f_6.8" vType="type1" speedFactor="1.01" vaporized=""/>
    <tripinfo id="f_5.8" depart="66.00" departLane="192748755#0_0" departPos="5.10" departSpeed="0.00" departDelay="2.00" arrival="87.00" arrivalLane="192748767#0_0" arrivalPos="97.24" arrivalSpeed="12.76" duration="21.00" routeLength="208.43" waitingTime="0.00" waitingCount="0" stopTime="0.00" timeLoss="5.14" rerouteNo="0" devices="tripinfo_f_5.8" vType="type1" speedFactor="0.98" vaporized=""/>
    <tripinfo id="f_4.7" depart="57.00" departLane="192748755#0_0" departPos="5.10" departSpeed="0.00" departDelay="1.00" arrival="89.00" arrivalLane="192748775_1" arrivalPos="327.83" arrivalSpeed="24.32" duration="32.00" routeLength="475.24" waitingTime="0.00" waitingCount="0" stopTime="0.00" timeLoss="6.61" rerouteNo="0" devices="tripinfo_f_4.7" vType="type1" speedFactor="0.91" vaporized=""/>
    <tripinfo id="f_6.9" depart="77.00" departLane="192748755#0_0" departPos="5.10" departSpeed="0.00" departDelay="5.00" arrival="93.00" arrivalLane="422972291_0" arrivalPos="44.85" arrivalSpeed="22.17" duration="16.00" routeLength="188.57" waitingTime="0.00" waitingCount="0" stopTime="0.00" timeLoss="5.21" rerouteNo="0" devices="tripinfo_f_6.9" vType="type1" speedFactor="1.04" vaporized=""/>
    <tripinfo id="f_4.8" depart="65.00" departLane="192748755#0_0" departPos="5.10" departSpeed="0.00" departDelay="1.00" arrival="94.00" arrivalLane="192748775_1" arrivalPos="327.83" arrivalSpeed="28.04" duration="29.00" routeLength="475.24" waitingTime="0.00" waitingCount="0" stopTime="0.00" timeLoss="6.43" rerouteNo="0" devices="tripinfo_f_4.8" vType="type1" speedFactor="1.03" vaporized=""/>
    <tripinfo id="f_5.9" depart="74.00" departLane="192748755#0_0" departPos="5.10" departSpeed="0.00" departDelay="2.00" arrival="95.00" arrivalLane="192748767#0_0" arrivalPos="97.24" arrivalSpeed="13.86" duration="21.00" routeLength="208.43" waitingTime="0.00" waitingCount="0" stopTime="0.00" timeLoss="4.39" rerouteNo="0" devices="tripinfo_f_5.9" vType="type1" speedFactor="1.00" vaporized=""/>
    <tripinfo id="f_6.10" depart="85.00" departLane="192748755#0_0" departPos="5.10" departSpeed="0.00" departDelay="5.00" arrival="101.00" arrivalLane="422972291_0" arrivalPos="44.85" arrivalSpeed="24.21" duration="16.00" routeLength="188.57" waitingTime="0.00" waitingCount="0" stopTime="0.00" timeLoss="4.68" rerouteNo="0" devices="tripinfo_f_6.10" vType="type1" speedFactor="1.01" vaporized=""/>
    <tripinfo id="f_4.9" depart="72.00" departLane="192748755#0_0" departPos="5.10" departSpeed="0.00" departDelay="0.00" arrival="102.00" arrivalLane="192748775_1" arrivalPos="327.83" arrivalSpeed="26.15" duration="30.00" routeLength="475.24" waitingTime="0.00" waitingCount="0" stopTime="0.00" timeLoss="6.07" rerouteNo="0" devices="tripinfo_f_4.9" vType="type1" speedFactor="0.98" vaporized=""/>
    <tripinfo id="f_5.10" depart="82.00" departLane="192748755#0_0" departPos="5.10" departSpeed="0.00" departDelay="2.00" arrival="102.00" arrivalLane="192748767#0_0" arrivalPos="97.24" arrivalSpeed="14.37" duration="20.00" routeLength="208.43" waitingTime="0.00" waitingCount="0" stopTime="0.00" timeLoss="4.59" rerouteNo="0" devices="tripinfo_f_5.10" vType="type1" speedFactor="1.06" vaporized=""/>
    <tripinfo id="f_4.10" depart="80.00" departLane="192748755#0_0" departPos="5.10" departSpeed="0.00" departDelay="0.00" arrival="108.00" arrivalLane="192748775_1" arrivalPos="327.83" arrivalSpeed="29.29" duration="28.00" routeLength="475.24" waitingTime="0.00" waitingCount="0" stopTime="0.00" timeLoss="6.86" rerouteNo="0" devices="tripinfo_f_4.10" vType="type1" speedFactor="1.09" vaporized=""/>
    <tripinfo id="f_6.11" depart="93.00" departLane="192748755#0_0" departPos="5.10" departSpeed="0.00" departDelay="5.00" arrival="110.00" arrivalLane="422972291_0" arrivalPos="44.85" arrivalSpeed="21.49" duration="17.00" routeLength="188.57" waitingTime="0.00" waitingCount="0" stopTime="0.00" timeLoss="6.71" rerouteNo="0" devices="tripinfo_f_6.11" vType="type1" speedFactor="1.07" vaporized=""/>
    <tripinfo id="f_5.11" depart="90.00" departLane="192748755#0_0" departPos="5.10" departSpeed="0.00" departDelay="2.00" arrival="112.00" arrivalLane="192748767#0_0" arrivalPos="97.24" arrivalSpeed="12.31" duration="22.00" routeLength="208.43" waitingTime="0.00" waitingCount="0" stopTime="0.00" timeLoss="4.44" rerouteNo="0" devices="tripinfo_f_5.11" vType="type1" speedFactor="0.89" vaporized=""/>
    <tripinfo id="f_6.12" depart="101.00" departLane="192748755#0_0" departPos="5.10" departSpeed="0.00" departDelay="5.00" arrival="117.00" arrivalLane="422972291_0" arrivalPos="44.85" arrivalSpeed="24.36" duration="16.00" routeLength="188.57" waitingTime="0.00" waitingCount="0" stopTime="0.00" timeLoss="5.72" rerouteNo="0" devices="tripinfo_f_6.12" vType="type1" speedFactor="1.10" vaporized=""/>
    <tripinfo id="f_5.12" depart="98.00" departLane="192748755#0_0" departPos="5.10" departSpeed="0.00" departDelay="2.00" arrival="118.00" arrivalLane="192748767#0_0" arrivalPos="97.24" arrivalSpeed="13.50" duration="20.00" routeLength="208.43" waitingTime="0.00" waitingCount="0" stopTime="0.00" timeLoss="4.21" rerouteNo="0" devices="tripinfo_f_5.12" vType="type1" speedFactor="1.01" vaporized=""/>
    <tripinfo id="f_4.11" depart="88.00" departLane="192748755#0_0" departPos="5.10" departSpeed="0.00" departDelay="0.00" arrival="119.00" arrivalLane="192748775_1" arrivalPos="327.83" arrivalSpeed="25.65" duration="31.00" routeLength="475.24" waitingTime="0.00" waitingCount="0" stopTime="0.00" timeLoss="6.28" rerouteNo="0" devices="tripinfo_f_4.11" vType="type1" speedFactor="0.95" vaporized=""/>
    <tripinfo id="f_4.12" depart="96.00" departLane="192748755#0_0" departPos="5.10" departSpeed="0.00" departDelay="0.00" arrival="123.00" arrivalLane="192748775_1" arrivalPos="327.83" arrivalSpeed="30.44" duration="27.00" routeLength="475.24" waitingTime="0.00" waitingCount="0" stopTime="0.00" timeLoss="5.74" rerouteNo="0" devices="tripinfo_f_4.12" vType="type1" speedFactor="1.10" vaporized=""/>
    <tripinfo id="f_6.13" depart="109.00" departLane="192748755#0_0" departPos="5.10" departSpeed="0.00" departDelay="5.00" arrival="124.00" arrivalLane="422972291_0" arrivalPos="44.85" arrivalSpeed="24.82" duration="15.00" routeLength="188.57" waitingTime="0.00" waitingCount="0" stopTime="0.00" timeLoss="4.44" rerouteNo="0" devices="tripinfo_f_6.13" vType="type1" speedFactor="1.02" vaporized=""/>
    <tripinfo id="f_5.13" depart="106.00" departLane="192748755#0_0" departPos="5.10" departSpeed="0.00" departDelay="2.00" arrival="126.00" arrivalLane="192748767#0_0" arrivalPos="97.24" arrivalSpeed="13.66" duration="20.00" routeLength="208.43" waitingTime="0.00" waitingCount="0" stopTime="0.00" timeLoss="4.50" rerouteNo="0" devices="tripinfo_f_5.13" vType="type1" speedFactor="1.03" vaporized=""/>
    <tripinfo id="f_4.13" depart="104.00" departLane="192748755#0_0" departPos="5.10" departSpeed="0.00" departDelay="0.00" arrival="132.00" arrivalLane="192748775_1" arrivalPos="327.83" arrivalSpeed="30.10" duration="28.00" routeLength="475.24" waitingTime="0.00" waitingCount="0" stopTime="0.00" timeLoss="6.63" rerouteNo="0" devices="tripinfo_f_4.13" vType="type1" speedFactor="1.10" vaporized=""/>
    <tripinfo id="f_6.14" depart="117.00" departLane="192748755#0_0" departPos="5.10" departSpeed="0.00" departDelay="5.00" arrival="133.00" arrivalLane="422972291_0" arrivalPos="44.85" arrivalSpeed="23.04" duration="16.00" routeLength="188.57" waitingTime="0.00" waitingCount="0" stopTime="0.00" timeLoss="4.67" rerouteNo="0" devices="tripinfo_f_6.14" vType="type1" speedFactor="0.96" vaporized=""/>
    <tripinfo id="f_5.14" depart="114.00" departLane="192748755#0_0" departPos="5.10" departSpeed="0.00" departDelay="2.00" arrival="134.00" arrivalLane="192748767#0_0" arrivalPos="97.24" arrivalSpeed="14.65" duration="20.00" routeLength="208.43" waitingTime="0.00" waitingCount="0" stopTime="0.00" timeLoss="5.19" rerouteNo="0" devices="tripinfo_f_5.14" vType="type1" speedFactor="1.07" vaporized=""/>
    <tripinfo id="f_6.15" depart="125.00" departLane="192748755#0_0" departPos="5.10" departSpeed="0.00" departDelay="5.00" arrival="140.00" arrivalLane="422972291_0" arrivalPos="44.85" arrivalSpeed="23.69" duration="15.00" routeLength="188.57" waitingTime="0.00" waitingCount="0" stopTime="0.00" timeLoss="5.67" rerouteNo="0" devices="tripinfo_f_6.15" vType="type1" speedFactor="1.16" vaporized=""/>
    <tripinfo id="f_4.14" depart="112.00" departLane="192748755#0_0" departPos="5.10" departSpeed="0.00" departDelay="0.00" arrival="141.00" arrivalLane="192748775_1" arrivalPos="327.83" arrivalSpeed="28.50" duration="29.00" routeLength="475.24" waitingTime="0.00" waitingCount="0" stopTime="0.00" timeLoss="6.92" rerouteNo="0" devices="tripinfo_f_4.14" vType="type1" speedFactor="1.03" vaporized=""/>
    <tripinfo id="f_5.15" depart="122.00" departLane="192748755#0_0" departPos="5.10" departSpeed="0.00" departDelay="2.00" arrival="141.00" arrivalLane="192748767#0_0" arrivalPos="97.24" arrivalSpeed="14.65" duration="19.00" routeLength="208.43" waitingTime="0.00" waitingCount="0" stopTime="0.00" timeLoss="4.94" rerouteNo="0" devices="tripinfo_f_5.15" vType="type1" speedFactor="1.11" vaporized=""/>
    <tripinfo id="f_6.16" depart="133.00" departLane="192748755#0_0" departPos="5.10" departSpeed="0.00" departDelay="5.00" arrival="149.00" arrivalLane="422972291_0" arrivalPos="44.85" arrivalSpeed="22.23" duration="16.00" routeLength="188.57" waitingTime="0.00" waitingCount="0" stopTime="0.00" timeLoss="4.69" rerouteNo="0" devices="tripinfo_f_6.16" vType="type1" speedFactor="0.96" vaporized=""/>
    <tripinfo id="f_4.15" depart="120.00" departLane="192748755#0_0" departPos="5.10" departSpeed="0.00" departDelay="0.00" arrival="150.00" arrivalLane="192748775_1" arrivalPos="327.83" arrivalSpeed="25.78" duration="30.00" routeLength="475.24" waitingTime="0.00" waitingCount="0" stopTime="0.00" timeLoss="5.95" rerouteNo="0" devices="tripinfo_f_4.15" vType="type1" speedFactor="0.95" vaporized=""/>
    <tripinfo id="f_5.16" depart="130.00" departLane="192748755#0_0" departPos="5.10" departSpeed="0.00" departDelay="2.00" arrival="151.00" arrivalLane="192748767#0_0" arrivalPos="97.24" arrivalSpeed="13.71" duration="21.00" routeLength="208.43" waitingTime="0.00" waitingCount="0" stopTime="0.00" timeLoss="5.05" rerouteNo="0" devices="tripinfo_f_5.16" vType="type1" speedFactor="1.04" vaporized=""/>
    <tripinfo id="f_4.16" depart="128.00" departLane="192748755#0_0" departPos="5.10" departSpeed="0.00" departDelay="0.00" arrival="158.00" arrivalLane="192748775_1" arrivalPos="327.83" arrivalSpeed="26.67" duration="30.00" routeLength="475.24" waitingTime="0.00" waitingCount="0" stopTime="0.00" timeLoss="6.27" rerouteNo="0" devices="tripinfo_f_4.16" vType="type1" speedFactor="0.97" vaporized=""/>
    <tripinfo id="f_6.17" depart="141.00" departLane="192748755#0_0" departPos="5.10" departSpeed="0.00" departDelay="5.00" arrival="158.00" arrivalLane="422972291_0" arrivalPos="44.85" arrivalSpeed="20.39" duration="17.00" routeLength="188.57" waitingTime="0.00" waitingCount="0" stopTime="0.00" timeLoss="7.27" rerouteNo="0" devices="tripinfo_f_6.17" vType="type1" speedFactor="1.14" vaporized=""/>
    <tripinfo id="f_5.17" depart="138.00" departLane="192748755#0_0" departPos="5.10" departSpeed="0.00" departDelay="2.00" arrival="160.00" arrivalLane="192748767#0_0" arrivalPos="97.24" arrivalSpeed="11.95" duration="22.00" routeLength="208.43" waitingTime="0.00" waitingCount="0" stopTime="0.00" timeLoss="4.05" rerouteNo="0" devices="tripinfo_f_5.17" vType="type1" speedFactor="0.91" vaporized=""/>
    <tripinfo id="f_4.17" depart="136.00" departLane="192748755#0_0" departPos="5.10" departSpeed="0.00" departDelay="0.00" arrival="164.00" arrivalLane="192748775_1" arrivalPos="327.83" arrivalSpeed="29.89" duration="28.00" routeLength="475.24" waitingTime="0.00" waitingCount="0" stopTime="0.00" timeLoss="6.81" rerouteNo="0" devices="tripinfo_f_4.17" vType="type1" speedFactor="1.08" vaporized=""/>
    <tripinfo id="f_6.18" depart="149.00" departLane="192748755#0_0" departPos="5.10" departSpeed="0.00" departDelay="5.00" arrival="165.00" arrivalLane="422972291_0" arrivalPos="44.85" arrivalSpeed="21.36" duration="16.00" routeLength="188.57" waitingTime="0.00" waitingCount="0" stopTime="0.00" timeLoss="4.63" rerouteNo="0" devices="tripinfo_f_6.18" vType="type1" speedFactor="0.98" vaporized=""/>
    <tripinfo id="f_5.18" depart="146.00" departLane="192748755#0_0" departPos="5.10" departSpeed="0.00" departDelay="2.00" arrival="166.00" arrivalLane="192748767#0_0" arrivalPos="97.24" arrivalSpeed="13.18" duration="20.00" routeLength="208.43" waitingTime="0.00" waitingCount="0" stopTime="0.00" timeLoss="4.63" rerouteNo="0" devices="tripinfo_f_5.18" vType="type1" speedFactor="1.03" vaporized=""/>
    <tripinfo id="f_4.18" depart="144.00" departLane="192748755#0_0" departPos="5.10" departSpeed="0.00" departDelay="0.00" arrival="173.00" arrivalLane="192748775_1" arrivalPos="327.83" arrivalSpeed="27.14" duration="29.00" routeLength="475.24" waitingTime="0.00" waitingCount="0" stopTime="0.00" timeLoss="6.30" rerouteNo="0" devices="tripinfo_f_4.18" vType="type1" speedFactor="1.00" vaporized=""/>
    <tripinfo id="f_5.19" depart="154.00" departLane="192748755#0_0" departPos="5.10" departSpeed="0.00" departDelay="2.00" arrival="173.00" arrivalLane="192748767#0_0" arrivalPos="97.24" arrivalSpeed="14.29" duration="19.00" routeLength="208.43" waitingTime="0.00" waitingCount="0" stopTime="0.00" timeLoss="4.47" rerouteNo="0" devices="tripinfo_f_5.19" vType="type1" speedFactor="1.09" vaporized=""/>
    <tripinfo id="f_6.19" depart="157.00" departLane="192748755#0_0" departPos="5.10" departSpeed="0.00" departDelay="5.00" arrival="173.00" arrivalLane="422972291_0" arrivalPos="44.85" arrivalSpeed="23.53" duration="16.00" routeLength="188.57" waitingTime="0.00" waitingCount="0" stopTime="0.00" timeLoss="4.99" rerouteNo="0" devices="tripinfo_f_6.19" vType="type1" speedFactor="1.03" vaporized=""/>
    <tripinfo id="f_6.20" depart="165.00" departLane="192748755#0_0" departPos="5.10" departSpeed="0.00" departDelay="5.00" arrival="181.00" arrivalLane="422972291_0" arrivalPos="44.85" arrivalSpeed="23.28" duration="16.00" routeLength="188.57" waitingTime="0.00" waitingCount="0" stopTime="0.00" timeLoss="5.70" rerouteNo="0" devices="tripinfo_f_6.20" vType="type1" speedFactor="1.08" vaporized=""/>
    <tripinfo id="f_4.19" depart="152.00" departLane="192748755#0_0" departPos="5.10" departSpeed="0.00" departDelay="0.00" arrival="184.00" arrivalLane="192748775_1" arrivalPos="327.83" arrivalSpeed="24.59" duration="32.00" routeLength="475.24" waitingTime="0.00" waitingCount="0" stopTime="0.00" timeLoss="6.40" rerouteNo="0" devices="tripinfo_f_4.19" vType="type1" speedFactor="0.92" vaporized=""/>
    <tripinfo id="f_5.20" depart="162.00" departLane="192748755#0_0" departPos="5.10" departSpeed="0.00" departDelay="2.00" arrival="184.00" arrivalLane="192748767#0_0" arrivalPos="97.24" arrivalSpeed="11.97" duration="22.00" routeLength="208.43" waitingTime="0.00" waitingCount="0" stopTime="0.00" timeLoss="4.17" rerouteNo="0" devices="tripinfo_f_5.20" vType="type1" speedFactor="0.92" vaporized=""/>
    <tripinfo id="f_5.21" depart="170.00" departLane="192748755#0_0" departPos="5.10" departSpeed="0.00" departDelay="2.00" arrival="190.00" arrivalLane="192748767#0_0" arrivalPos="97.24" arrivalSpeed="12.73" duration="20.00" routeLength="208.43" waitingTime="0.00" waitingCount="0" stopTime="0.00" timeLoss="4.31" rerouteNo="0" devices="tripinfo_f_5.21" vType="type1" speedFactor="1.00" vaporized=""/>
    <tripinfo id="f_4.20" depart="160.00" departLane="192748755#0_0" departPos="5.10" departSpeed="0.00" departDelay="0.00" arrival="191.00" arrivalLane="192748775_1" arrivalPos="327.83" arrivalSpeed="25.55" duration="31.00" routeLength="475.24" waitingTime="0.00" waitingCount="0" stopTime="0.00" timeLoss="6.09" rerouteNo="0" devices="tripinfo_f_4.20" vType="type1" speedFactor="0.94" vaporized=""/>