<?xml version="1.0" encoding="UTF-8"?>

<!-- generated on 2022-06-19 22:34:00 by Eclipse SUMO sumo Version 1.12.0
<configuration xmlns:xsi="http://www.w3.org/2001/XMLSchema-instance" xsi:noNamespaceSchemaLocation="http://sumo.dlr.de/xsd/sumoConfiguration.xsd">

    <input>
        <net-file value="C:\Users\ricca\PycharmProjects\DeepReinforcementLearning_TrafficLight\Simulation\osm.net.xml"/>
        <route-files value="C:\Users\ricca\PycharmProjects\DeepReinforcementLearning_TrafficLight\Simulation\demand.rou.xml"/>
        <additional-files value="C:\Users\ricca\PycharmProjects\DeepReinforcementLearning_TrafficLight\Simulation\detectors.xml"/>
    </input>

    <output>
        <tripinfo-output value="tripinfo.xml"/>
    </output>

    <processing>
        <waiting-time-memory value="10000"/>
    </processing>

    <report>
        <no-warnings value="true"/>
        <duration-log.disable value="true"/>
        <no-step-log value="true"/>
    </report>

    <traci_server>
        <remote-port value="64716"/>
    </traci_server>

</configuration>
-->

<tripinfos xmlns:xsi="http://www.w3.org/2001/XMLSchema-instance" xsi:noNamespaceSchemaLocation="http://sumo.dlr.de/xsd/tripinfo_file.xsd">
    <tripinfo id="f_2.0" depart="0.00" departLane="193714501#0_0" departPos="5.10" departSpeed="0.00" departDelay="0.00" arrival="21.00" arrivalLane="422972291_0" arrivalPos="44.85" arrivalSpeed="27.39" duration="21.00" routeLength="394.76" waitingTime="0.00" waitingCount="0" stopTime="0.00" timeLoss="6.66" rerouteNo="0" devices="tripinfo_f_2.0" vType="DEFAULT_VEHTYPE" speedFactor="1.01" vaporized=""/>
    <tripinfo id="f_3.0" depart="3.00" departLane="193714501#0_0" departPos="5.10" departSpeed="0.00" departDelay="3.00" arrival="24.00" arrivalLane="422972291_0" arrivalPos="44.85" arrivalSpeed="29.20" duration="21.00" routeLength="394.76" waitingTime="0.00" waitingCount="0" stopTime="0.00" timeLoss="7.46" rerouteNo="0" devices="tripinfo_f_3.0" vType="DEFAULT_VEHTYPE" speedFactor="1.08" vaporized=""/>
    <tripinfo id="f_0.0" depart="0.00" departLane="-406769344#2_0" departPos="5.10" departSpeed="0.00" departDelay="0.00" arrival="33.00" arrivalLane="192748775_0" arrivalPos="327.83" arrivalSpeed="28.98" duration="33.00" routeLength="578.61" waitingTime="0.00" waitingCount="0" stopTime="0.00" timeLoss="5.32" rerouteNo="0" devices="tripinfo_f_0.0" vType="DEFAULT_VEHTYPE" speedFactor="1.06" vaporized=""/>
    <tripinfo id="f_7.0" depart="6.00" departLane="193714501#0_0" departPos="5.10" departSpeed="0.00" departDelay="6.00" arrival="38.00" arrivalLane="-192748755#2_0" arrivalPos="103.11" arrivalSpeed="11.76" duration="32.00" routeLength="437.50" waitingTime="0.00" waitingCount="0" stopTime="0.00" timeLoss="7.83" rerouteNo="0" devices="tripinfo_f_7.0" vType="DEFAULT_VEHTYPE" speedFactor="0.89" vaporized=""/>
    <tripinfo id="f_8.0" depart="9.00" departLane="193714501#0_0" departPos="5.10" departSpeed="0.00" departDelay="9.00" arrival="39.00" arrivalLane="192748767#0_0" arrivalPos="97.24" arrivalSpeed="12.34" duration="30.00" routeLength="433.67" waitingTime="0.00" waitingCount="0" stopTime="0.00" timeLoss="8.18" rerouteNo="0" devices="tripinfo_f_8.0" vType="DEFAULT_VEHTYPE" speedFactor="0.94" vaporized=""/>
    <tripinfo id="f_6.0" depart="6.00" departLane="192748755#0_0" departPos="5.10" departSpeed="0.00" departDelay="6.00" arrival="46.00" arrivalLane="422972291_0" arrivalPos="44.85" arrivalSpeed="19.48" duration="40.00" routeLength="188.57" waitingTime="17.00" waitingCount="1" stopTime="0.00" timeLoss="29.51" rerouteNo="0" devices="tripinfo_f_6.0" vType="DEFAULT_VEHTYPE" speedFactor="1.05" vaporized=""/>
    <tripinfo id="f_5.0" depart="3.00" departLane="192748755#0_0" departPos="5.10" departSpeed="0.00" departDelay="3.00" arrival="48.00" arrivalLane="192748767#0_0" arrivalPos="97.24" arrivalSpeed="10.94" duration="45.00" routeLength="208.43" waitingTime="17.00" waitingCount="1" stopTime="0.00" timeLoss="25.69" rerouteNo="0" devices="tripinfo_f_5.0" vType="DEFAULT_VEHTYPE" speedFactor="0.83" vaporized=""/>
    <tripinfo id="f_6.1" depart="17.00" departLane="192748755#0_0" departPos="5.10" departSpeed="0.00" departDelay="5.00" arrival="49.00" arrivalLane="422972291_0" arrivalPos="44.85" arrivalSpeed="19.74" duration="32.00" routeLength="188.57" waitingTime="8.00" waitingCount="1" stopTime="0.00" timeLoss="20.42" rerouteNo="0" devices="tripinfo_f_6.1" vType="DEFAULT_VEHTYPE" speedFactor="0.93" vaporized=""/>
    <tripinfo id="f_5.1" depart="14.00" departLane="192748755#0_0" departPos="5.10" departSpeed="0.00" departDelay="2.00" arrival="50.00" arrivalLane="192748767#0_0" arrivalPos="97.24" arrivalSpeed="13.27" duration="36.00" routeLength="208.43" waitingTime="9.00" waitingCount="1" stopTime="0.00" timeLoss="20.26" rerouteNo="0" devices="tripinfo_f_5.1" vType="DEFAULT_VEHTYPE" speedFactor="0.99" vaporized=""/>
    <tripinfo id="f_6.2" depart="30.00" departLane="192748755#0_0" departPos="5.10" departSpeed="0.00" departDelay="6.00" arrival="53.00" arrivalLane="422972291_0" arrivalPos="44.85" arrivalSpeed="20.99" duration="23.00" routeLength="188.57" waitingTime="0.00" waitingCount="0" stopTime="0.00" timeLoss="9.96" rerouteNo="0" devices="tripinfo_f_6.2" vType="DEFAULT_VEHTYPE" speedFactor="0.83" vaporized=""/>
    <tripinfo id="f_4.0" depart="0.00" departLane="192748755#0_0" departPos="5.10" departSpeed="0.00" departDelay="0.00" arrival="56.00" arrivalLane="192748775_1" arrivalPos="327.83" arrivalSpeed="27.85" duration="56.00" routeLength="475.24" waitingTime="21.00" waitingCount="1" stopTime="0.00" timeLoss="33.24" rerouteNo="0" devices="tripinfo_f_4.0" vType="DEFAULT_VEHTYPE" speedFactor="1.03" vaporized=""/>
    <tripinfo id="f_5.2" depart="27.00" departLane="192748755#0_0" departPos="5.10" departSpeed="0.00" departDelay="3.00" arrival="56.00" arrivalLane="192748767#0_0" arrivalPos="97.24" arrivalSpeed="12.21" duration="29.00" routeLength="208.43" waitingTime="2.00" waitingCount="1" stopTime="0.00" timeLoss="10.73" rerouteNo="0" devices="tripinfo_f_5.2" vType="DEFAULT_VEHTYPE" speedFactor="0.89" vaporized=""/>
    <tripinfo id="f_4.1" depart="12.00" departLane="192748755#0_0" departPos="5.10" departSpeed="0.00" departDelay="0.00" arrival="57.00" arrivalLane="192748775_1" arrivalPos="327.83" arrivalSpeed="31.15" duration="45.00" routeLength="475.24" waitingTime="11.00" waitingCount="1" stopTime="0.00" timeLoss="24.52" rerouteNo="0" devices="tripinfo_f_4.1" vType="DEFAULT_VEHTYPE" speedFactor="1.12" vaporized=""/>
    <tripinfo id="f_6.3" depart="41.00" departLane="192748755#0_0" departPos="5.10" departSpeed="0.00" departDelay="5.00" arrival="57.00" arrivalLane="422972291_0" arrivalPos="44.85" arrivalSpeed="21.35" duration="16.00" routeLength="188.57" waitingTime="0.00" waitingCount="0" stopTime="0.00" timeLoss="6.71" rerouteNo="0" devices="tripinfo_f_6.3" vType="DEFAULT_VEHTYPE" speedFactor="1.17" vaporized=""/>
    <tripinfo id="f_5.3" depart="38.00" departLane="192748755#0_0" departPos="5.10" departSpeed="0.00" departDelay="2.00" arrival="59.00" arrivalLane="192748767#0_0" arrivalPos="97.24" arrivalSpeed="13.85" duration="21.00" routeLength="208.43" waitingTime="0.00" waitingCount="0" stopTime="0.00" timeLoss="4.94" rerouteNo="0" devices="tripinfo_f_5.3" vType="DEFAULT_VEHTYPE" speedFactor="1.01" vaporized=""/>
    <tripinfo id="f_4.2" depart="24.00" departLane="192748755#0_0" departPos="5.10" departSpeed="0.00" departDelay="0.00" arrival="61.00" arrivalLane="192748775_1" arrivalPos="327.83" arrivalSpeed="26.34" duration="37.00" routeLength="475.24" waitingTime="0.00" waitingCount="0" stopTime="0.00" timeLoss="12.76" rerouteNo="0" devices="tripinfo_f_4.2" vType="DEFAULT_VEHTYPE" speedFactor="0.98" vaporized=""/>
    <tripinfo id="f_1.0" depart="3.00" departLane="-406769344#2_0" departPos="5.10" departSpeed="0.00" departDelay="3.00" arrival="67.00" arrivalLane="-192748755#2_1" arrivalPos="103.11" arrivalSpeed="12.00" duration="64.00" routeLength="363.38" waitingTime="24.00" waitingCount="1" stopTime="0.00" timeLoss="35.29" rerouteNo="0" devices="tripinfo_f_1.0" vType="DEFAULT_VEHTYPE" speedFactor="0.94" vaporized=""/>
    <tripinfo id="f_1.1" depart="15.00" departLane="-406769344#2_0" departPos="5.10" departSpeed="0.00" departDelay="3.00" arrival="68.00" arrivalLane="-192748755#2_1" arrivalPos="103.11" arrivalSpeed="14.89" duration="53.00" routeLength="363.38" waitingTime="16.00" waitingCount="1" stopTime="0.00" timeLoss="28.73" rerouteNo="0" devices="tripinfo_f_1.1" vType="DEFAULT_VEHTYPE" speedFactor="1.09" vaporized=""/>
    <tripinfo id="f_1.2" depart="27.00" departLane="-406769344#2_0" departPos="5.10" departSpeed="0.00" departDelay="3.00" arrival="70.00" arrivalLane="-192748755#2_1" arrivalPos="103.11" arrivalSpeed="15.65" duration="43.00" routeLength="363.38" waitingTime="6.00" waitingCount="1" stopTime="0.00" timeLoss="19.84" rerouteNo="0" devices="tripinfo_f_1.2" vType="DEFAULT_VEHTYPE" speedFactor="1.16" vaporized=""/>
    <tripinfo id="f_5.4" depart="50.00" departLane="192748755#0_0" departPos="5.10" departSpeed="0.00" departDelay="2.00" arrival="71.00" arrivalLane="192748767#0_0" arrivalPos="97.24" arrivalSpeed="13.27" duration="21.00" routeLength="208.43" waitingTime="0.00" waitingCount="0" stopTime="0.00" timeLoss="4.02" rerouteNo="0" devices="tripinfo_f_5.4" vType="DEFAULT_VEHTYPE" speedFactor="0.96" vaporized=""/>
    <tripinfo id="f_0.1" depart="12.00" departLane="-406769344#2_0" departPos="5.10" departSpeed="0.00" departDelay="0.00" arrival="72.00" arrivalLane="192748775_0" arrivalPos="327.83" arrivalSpeed="23.48" duration="60.00" routeLength="578.61" waitingTime="15.00" waitingCount="1" stopTime="0.00" timeLoss="26.20" rerouteNo="0" devices="tripinfo_f_0.1" vType="DEFAULT_VEHTYPE" speedFactor="0.86" vaporized=""/>
    <tripinfo id="f_1.3" depart="39.00" departLane="-406769344#2_0" departPos="5.10" departSpeed="0.00" departDelay="3.00" arrival="72.00" arrivalLane="-192748755#2_1" arrivalPos="103.11" arrivalSpeed="14.89" duration="33.00" routeLength="363.38" waitingTime="0.00" waitingCount="0" stopTime="0.00" timeLoss="9.06" rerouteNo="0" devices="tripinfo_f_1.3" vType="DEFAULT_VEHTYPE" speedFactor="1.13" vaporized=""/>
    <tripinfo id="f_0.2" depart="24.00" departLane="-406769344#2_0" departPos="5.10" departSpeed="0.00" departDelay="0.00" arrival="74.00" arrivalLane="192748775_0" arrivalPos="327.83" arrivalSpeed="25.79" duration="50.00" routeLength="578.61" waitingTime="6.00" waitingCount="1" stopTime="0.00" timeLoss="18.67" rerouteNo="0" devices="tripinfo_f_0.2" vType="DEFAULT_VEHTYPE" speedFactor="0.94" vaporized=""/>
    <tripinfo id="f_0.3" depart="36.00" departLane="-406769344#2_0" departPos="5.10" departSpeed="0.00" departDelay="0.00" arrival="75.00" arrivalLane="192748775_0" arrivalPos="327.83" arrivalSpeed="25.08" duration="39.00" routeLength="578.61" waitingTime="0.00" waitingCount="0" stopTime="0.00" timeLoss="8.52" rerouteNo="0" devices="tripinfo_f_0.3" vType="DEFAULT_VEHTYPE" speedFactor="0.95" vaporized=""/>
    <tripinfo id="f_2.1" depart="12.00" departLane="193714501#0_0" departPos="5.10" departSpeed="0.00" departDelay="0.00" arrival="76.00" arrivalLane="422972291_0" arrivalPos="44.85" arrivalSpeed="19.03" duration="64.00" routeLength="394.76" waitingTime="31.00" waitingCount="1" stopTime="0.00" timeLoss="49.78" rerouteNo="0" devices="tripinfo_f_2.1" vType="DEFAULT_VEHTYPE" speedFactor="1.03" vaporized=""/>
    <tripinfo id="f_3.1" depart="15.00" departLane="193714501#0_0" departPos="5.10" departSpeed="0.00" departDelay="3.00" arrival="76.00" arrivalLane="422972291_1" arrivalPos="44.85" arrivalSpeed="19.87" duration="61.00" routeLength="394.76" waitingTime="28.00" waitingCount="1" stopTime="0.00" timeLoss="46.84" rerouteNo="0" devices="tripinfo_f_3.1" vType="DEFAULT_VEHTYPE" speedFactor="1.05" vaporized=""/>
    <tripinfo id="f_2.2" depart="24.00" departLane="193714501#0_0" departPos="5.10" departSpeed="0.00" departDelay="0.00" arrival="78.00" arrivalLane="422972291_1" arrivalPos="44.85" arrivalSpeed="19.81" duration="54.00" routeLength="394.76" waitingTime="22.00" waitingCount="1" stopTime="0.00" timeLoss="39.54" rerouteNo="0" devices="tripinfo_f_2.2" vType="DEFAULT_VEHTYPE" speedFactor="1.02" vaporized=""/>
    <tripinfo id="f_3.2" depart="27.00" departLane="193714501#0_0" departPos="5.10" departSpeed="0.00" departDelay="3.00" arrival="80.00" arrivalLane="422972291_1" arrivalPos="44.85" arrivalSpeed="21.25" duration="53.00" routeLength="394.76" waitingTime="19.00" waitingCount="1" stopTime="0.00" timeLoss="38.43" rerouteNo="0" devices="tripinfo_f_3.2" vType="DEFAULT_VEHTYPE" speedFactor="1.01" vaporized=""/>
    <tripinfo id="f_2.3" depart="36.00" departLane="193714501#0_0" departPos="5.10" departSpeed="0.00" departDelay="0.00" arrival="82.00" arrivalLane="422972291_1" arrivalPos="44.85" arrivalSpeed="21.31" duration="46.00" routeLength="394.76" waitingTime="10.00" waitingCount="1" stopTime="0.00" timeLoss="29.94" rerouteNo="0" devices="tripinfo_f_2.3" vType="DEFAULT_VEHTYPE" speedFactor="0.93" vaporized=""/>
    <tripinfo id="f_3.3" depart="39.00" departLane="193714501#0_0" departPos="5.10" departSpeed="0.00" departDelay="3.00" arrival="83.00" arrivalLane="422972291_1" arrivalPos="44.85" arrivalSpeed="21.36" duration="44.00" routeLength="394.76" waitingTime="9.00" waitingCount="1" stopTime="0.00" timeLoss="31.64" rerouteNo="0" devices="tripinfo_f_3.3" vType="DEFAULT_VEHTYPE" speedFactor="1.18" vaporized=""/>
    <tripinfo id="f_0.4" depart="48.00" departLane="-406769344#2_0" departPos="5.10" departSpeed="0.00" departDelay="0.00" arrival="83.00" arrivalLane="192748775_0" arrivalPos="327.83" arrivalSpeed="26.59" duration="35.00" routeLength="578.61" waitingTime="0.00" waitingCount="0" stopTime="0.00" timeLoss="5.46" rerouteNo="0" devices="tripinfo_f_0.4" vType="DEFAULT_VEHTYPE" speedFactor="0.97" vaporized=""/>
    <tripinfo id="f_7.1" depart="18.00" departLane="193714501#0_0" departPos="5.10" departSpeed="0.00" departDelay="6.00" arrival="84.00" arrivalLane="-192748755#2_0" arrivalPos="103.11" arrivalSpeed="11.78" duration="66.00" routeLength="437.50" waitingTime="27.00" waitingCount="1" stopTime="0.00" timeLoss="40.97" rerouteNo="0" devices="tripinfo_f_7.1" vType="DEFAULT_VEHTYPE" speedFactor="0.88" vaporized=""/>
    <tripinfo id="f_8.1" depart="21.00" departLane="193714501#0_0" departPos="5.10" departSpeed="0.00" departDelay="9.00" arrival="84.00" arrivalLane="192748767#0_0" arrivalPos="97.24" arrivalSpeed="12.37" duration="63.00" routeLength="433.67" waitingTime="25.00" waitingCount="1" stopTime="0.00" timeLoss="41.67" rerouteNo="0" devices="tripinfo_f_8.1" vType="DEFAULT_VEHTYPE" speedFactor="0.94" vaporized=""/>
    <tripinfo id="f_2.4" depart="48.00" departLane="193714501#0_0" departPos="5.10" departSpeed="0.00" departDelay="0.00" arrival="85.00" arrivalLane="422972291_1" arrivalPos="44.85" arrivalSpeed="23.00" duration="37.00" routeLength="394.76" waitingTime="2.00" waitingCount="1" stopTime="0.00" timeLoss="23.39" rerouteNo="0" devices="tripinfo_f_2.4" vType="DEFAULT_VEHTYPE" speedFactor="1.10" vaporized=""/>
    <tripinfo id="f_3.4" depart="51.00" departLane="193714501#0_0" departPos="5.10" departSpeed="0.00" departDelay="3.00" arrival="86.00" arrivalLane="422972291_1" arrivalPos="44.85" arrivalSpeed="23.07" duration="35.00" routeLength="394.76" waitingTime="0.00" waitingCount="0" stopTime="0.00" timeLoss="18.70" rerouteNo="0" devices="tripinfo_f_3.4" vType="DEFAULT_VEHTYPE" speedFactor="0.90" vaporized=""/>
    <tripinfo id="f_7.2" depart="30.00" departLane="193714501#0_0" departPos="5.10" departSpeed="0.00" departDelay="6.00" arrival="88.00" arrivalLane="-192748755#2_0" arrivalPos="103.11" arrivalSpeed="11.09" duration="58.00" routeLength="437.50" waitingTime="17.00" waitingCount="1" stopTime="0.00" timeLoss="33.05" rerouteNo="0" devices="tripinfo_f_7.2" vType="DEFAULT_VEHTYPE" speedFactor="0.87" vaporized=""/>
    <tripinfo id="f_3.5" depart="63.00" departLane="193714501#0_0" departPos="5.10" departSpeed="0.00" departDelay="3.00" arrival="88.00" arrivalLane="422972291_1" arrivalPos="44.85" arrivalSpeed="23.48" duration="25.00" routeLength="394.76" waitingTime="0.00" waitingCount="0" stopTime="0.00" timeLoss="7.87" rerouteNo="0" devices="tripinfo_f_3.5" vType="DEFAULT_VEHTYPE" speedFactor="0.88" vaporized=""/>
    <tripinfo id="f_8.2" depart="33.00" departLane="193714501#0_0" departPos="5.10" departSpeed="0.00" departDelay="9.00" arrival="89.00" arrivalLane="192748767#0_0" arrivalPos="97.24" arrivalSpeed="11.46" duration="56.00" routeLength="433.67" waitingTime="14.00" waitingCount="1" stopTime="0.00" timeLoss="34.06" rerouteNo="0" devices="tripinfo_f_8.2" vType="DEFAULT_VEHTYPE" speedFactor="0.92" vaporized=""/>
    <tripinfo id="f_7.3" depart="42.00" departLane="193714501#0_0" departPos="5.10" departSpeed="0.00" departDelay="6.00" arrival="91.00" arrivalLane="-192748755#2_0" arrivalPos="103.11" arrivalSpeed="12.67" duration="49.00" routeLength="437.50" waitingTime="7.00" waitingCount="1" stopTime="0.00" timeLoss="26.97" rerouteNo="0" devices="tripinfo_f_7.3" vType="DEFAULT_VEHTYPE" speedFactor="0.99" vaporized=""/>
    <tripinfo id="f_2.5" depart="60.00" departLane="193714501#0_0" departPos="5.10" departSpeed="0.00" departDelay="0.00" arrival="91.00" arrivalLane="422972291_1" arrivalPos="44.85" arrivalSpeed="23.65" duration="31.00" routeLength="394.76" waitingTime="0.00" waitingCount="0" stopTime="0.00" timeLoss="14.87" rerouteNo="0" devices="tripinfo_f_2.5" vType="DEFAULT_VEHTYPE" speedFactor="0.90" vaporized=""/>
    <tripinfo id="f_8.3" depart="45.00" departLane="193714501#0_0" departPos="5.10" departSpeed="0.00" departDelay="9.00" arrival="92.00" arrivalLane="192748767#0_0" arrivalPos="97.24" arrivalSpeed="13.94" duration="47.00" routeLength="433.67" waitingTime="7.00" waitingCount="1" stopTime="0.00" timeLoss="27.11" rerouteNo="0" devices="tripinfo_f_8.3" vType="DEFAULT_VEHTYPE" speedFactor="1.02" vaporized=""/>
    <tripinfo id="f_0.5" depart="60.00" departLane="-406769344#2_0" departPos="5.10" departSpeed="0.00" departDelay="0.00" arrival="92.00" arrivalLane="192748775_0" arrivalPos="327.83" arrivalSpeed="29.71" duration="32.00" routeLength="578.61" waitingTime="0.00" waitingCount="0" stopTime="0.00" timeLoss="5.56" rerouteNo="0" devices="tripinfo_f_0.5" vType="DEFAULT_VEHTYPE" speedFactor="1.09" vaporized=""/>
    <tripinfo id="f_7.4" depart="54.00" departLane="193714501#0_0" departPos="5.10" departSpeed="0.00" departDelay="6.00" arrival="95.00" arrivalLane="-192748755#2_0" arrivalPos="103.11" arrivalSpeed="13.33" duration="41.00" routeLength="437.50" waitingTime="0.00" waitingCount="0" stopTime="0.00" timeLoss="19.89" rerouteNo="0" devices="tripinfo_f_7.4" vType="DEFAULT_VEHTYPE" speedFactor="1.04" vaporized=""/>
    <tripinfo id="f_8.4" depart="57.00" departLane="193714501#0_0" departPos="5.10" departSpeed="0.00" departDelay="9.00" arrival="96.00" arrivalLane="192748767#0_0" arrivalPos="97.24" arrivalSpeed="14.42" duration="39.00" routeLength="433.67" waitingTime="0.00" waitingCount="0" stopTime="0.00" timeLoss="19.43" rerouteNo="0" devices="tripinfo_f_8.4" vType="DEFAULT_VEHTYPE" speedFactor="1.04" vaporized=""/>
    <tripinfo id="f_6.4" depart="53.00" departLane="192748755#0_0" departPos="5.10" departSpeed="0.00" departDelay="5.00" arrival="102.00" arrivalLane="422972291_0" arrivalPos="44.85" arrivalSpeed="18.45" duration="49.00" routeLength="188.57" waitingTime="26.00" waitingCount="1" stopTime="0.00" timeLoss="38.64" rerouteNo="0" devices="tripinfo_f_6.4" vType="DEFAULT_VEHTYPE" speedFactor="1.09" vaporized=""/>
    <tripinfo id="f_1.4" depart="51.00" departLane="-406769344#2_0" departPos="5.10" departSpeed="0.00" departDelay="3.00" arrival="106.00" arrivalLane="-192748755#2_1" arrivalPos="103.11" arrivalSpeed="15.63" duration="55.00" routeLength="363.38" waitingTime="23.00" waitingCount="1" stopTime="0.00" timeLoss="32.23" rerouteNo="0" devices="tripinfo_f_1.4" vType="DEFAULT_VEHTYPE" speedFactor="1.18" vaporized=""/>
    <tripinfo id="f_6.5" depart="66.00" departLane="192748755#0_0" departPos="5.10" departSpeed="0.00" departDelay="6.00" arrival="106.00" arrivalLane="422972291_0" arrivalPos="44.85" arrivalSpeed="19.28" duration="40.00" routeLength="188.57" waitingTime="15.00" waitingCount="1" stopTime="0.00" timeLoss="30.51" rerouteNo="0" devices="tripinfo_f_6.5" vType="DEFAULT_VEHTYPE" speedFactor="1.17" vaporized=""/>
    <tripinfo id="f_5.5" depart="63.00" departLane="192748755#0_0" departPos="5.10" departSpeed="0.00" departDelay="3.00" arrival="107.00" arrivalLane="192748767#0_0" arrivalPos="97.24" arrivalSpeed="10.69" duration="44.00" routeLength="208.43" waitingTime="17.00" waitingCount="1" stopTime="0.00" timeLoss="25.78" rerouteNo="0" devices="tripinfo_f_5.5" vType="DEFAULT_VEHTYPE" speedFactor="0.85" vaporized=""/>
    <tripinfo id="f_0.6" depart="72.00" departLane="-406769344#2_0" departPos="5.10" departSpeed="0.00" departDelay="0.00" arrival="107.00" arrivalLane="192748775_0" arrivalPos="327.83" arrivalSpeed="27.29" duration="35.00" routeLength="578.61" waitingTime="0.00" waitingCount="0" stopTime="0.00" timeLoss="5.58" rerouteNo="0" devices="tripinfo_f_0.6" vType="DEFAULT_VEHTYPE" speedFactor="1.00" vaporized=""/>
    <tripinfo id="f_6.6" depart="77.00" departLane="192748755#0_0" departPos="5.10" departSpeed="0.00" departDelay="5.00" arrival="109.00" arrivalLane="422972291_0" arrivalPos="44.85" arrivalSpeed="19.98" duration="32.00" routeLength="188.57" waitingTime="9.00" waitingCount="1" stopTime="0.00" timeLoss="22.20" rerouteNo="0" devices="tripinfo_f_6.6" vType="DEFAULT_VEHTYPE" speedFactor="1.08" vaporized=""/>
    <tripinfo id="f_1.5" depart="63.00" departLane="-406769344#2_0" departPos="5.10" departSpeed="0.00" departDelay="3.00" arrival="110.00" arrivalLane="-192748755#2_1" arrivalPos="103.11" arrivalSpeed="13.71" duration="47.00" routeLength="363.38" waitingTime="10.00" waitingCount="1" stopTime="0.00" timeLoss="19.81" rerouteNo="0" devices="tripinfo_f_1.5" vType="DEFAULT_VEHTYPE" speedFactor="1.00" vaporized=""/>
    <tripinfo id="f_5.6" depart="74.00" departLane="192748755#0_0" departPos="5.10" departSpeed="0.00" departDelay="2.00" arrival="111.00" arrivalLane="192748767#0_0" arrivalPos="97.24" arrivalSpeed="13.36" duration="37.00" routeLength="208.43" waitingTime="10.00" waitingCount="1" stopTime="0.00" timeLoss="20.45" rerouteNo="0" devices="tripinfo_f_5.6" vType="DEFAULT_VEHTYPE" speedFactor="0.97" vaporized=""/>
    <tripinfo id="f_1.6" depart="75.00" departLane="-406769344#2_0" departPos="5.10" departSpeed="0.00" departDelay="3.00" arrival="112.00" arrivalLane="-192748755#2_1" arrivalPos="103.11" arrivalSpeed="10.07" duration="37.00" routeLength="363.38" waitingTime="0.00" waitingCount="0" stopTime="0.00" timeLoss="10.19" rerouteNo="0" devices="tripinfo_f_1.6" vType="DEFAULT_VEHTYPE" speedFactor="1.00" vaporized=""/>
    <tripinfo id="f_6.7" depart="89.00" departLane="192748755#0_0" departPos="5.10" departSpeed="0.00" departDelay="5.00" arrival="113.00" arrivalLane="422972291_0" arrivalPos="44.85" arrivalSpeed="21.60" duration="24.00" routeLength="188.57" waitingTime="0.00" waitingCount="0" stopTime="0.00" timeLoss="13.14" rerouteNo="0" devices="tripinfo_f_6.7" vType="DEFAULT_VEHTYPE" speedFactor="1.02" vaporized=""/>
    <tripinfo id="f_5.7" depart="86.00" departLane="192748755#0_0" departPos="5.10" departSpeed="0.00" departDelay="2.00" arrival="115.00" arrivalLane="192748767#0_0" arrivalPos="97.24" arrivalSpeed="13.65" duration="29.00" routeLength="208.43" waitingTime="0.00" waitingCount="0" stopTime="0.00" timeLoss="13.45" rerouteNo="0" devices="tripinfo_f_5.7" vType="DEFAULT_VEHTYPE" speedFactor="1.04" vaporized=""/>
    <tripinfo id="f_6.8" depart="100.00" departLane="192748755#0_0" departPos="5.10" departSpeed="0.00" departDelay="4.00" arrival="117.00" arrivalLane="422972291_0" arrivalPos="44.85" arrivalSpeed="21.72" duration="17.00" routeLength="188.57" waitingTime="0.00" waitingCount="0" stopTime="0.00" timeLoss="6.03" rerouteNo="0" devices="tripinfo_f_6.8" vType="DEFAULT_VEHTYPE" speedFactor="1.01" vaporized=""/>
    <tripinfo id="f_0.7" depart="84.00" departLane="-406769344#2_0" departPos="5.10" departSpeed="0.00" departDelay="0.00" arrival="119.00" arrivalLane="192748775_0" arrivalPos="327.83" arrivalSpeed="26.83" duration="35.00" routeLength="578.61" waitingTime="0.00" waitingCount="0" stopTime="0.00" timeLoss="5.15" rerouteNo="0" devices="tripinfo_f_0.7" vType="DEFAULT_VEHTYPE" speedFactor="0.99" vaporized=""/>
    <tripinfo id="f_5.8" depart="97.00" departLane="192748755#0_0" departPos="5.10" departSpeed="0.00" departDelay="1.00" arrival="119.00" arrivalLane="192748767#0_0" arrivalPos="97.24" arrivalSpeed="12.87" duration="22.00" routeLength="208.43" waitingTime="0.00" waitingCount="0" stopTime="0.00" timeLoss="6.15" rerouteNo="0" devices="tripinfo_f_5.8" vType="DEFAULT_VEHTYPE" speedFactor="0.98" vaporized=""/>
    <tripinfo id="f_4.3" depart="36.00" departLane="192748755#0_0" departPos="5.10" departSpeed="0.00" departDelay="0.00" arrival="129.00" arrivalLane="192748775_1" arrivalPos="327.83" arrivalSpeed="31.88" duration="93.00" routeLength="475.24" waitingTime="59.00" waitingCount="1" stopTime="0.00" timeLoss="72.60" rerouteNo="0" devices="tripinfo_f_4.3" vType="DEFAULT_VEHTYPE" speedFactor="1.15" vaporized=""/>
    <tripinfo id="f_4.4" depart="48.00" departLane="192748755#0_0" departPos="5.10" departSpeed="0.00" departDelay="0.00" arrival="131.00" arrivalLane="192748775_1" arrivalPos="327.83" arrivalSpeed="27.86" duration="83.00" routeLength="475.24" waitingTime="50.00" waitingCount="1" stopTime="0.00" timeLoss="60.80" rerouteNo="0" devices="tripinfo_f_4.4" vType="DEFAULT_VEHTYPE" speedFactor="1.03" vaporized=""/>
    <tripinfo id="f_2.6" depart="72.00" departLane="193714501#0_0" departPos="5.10" departSpeed="0.00" departDelay="0.00" arrival="134.00" arrivalLane="422972291_1" arrivalPos="44.85" arrivalSpeed="19.26" duration="62.00" routeLength="394.76" waitingTime="28.00" waitingCount="1" stopTime="0.00" timeLoss="45.64" rerouteNo="0" devices="tripinfo_f_2.6" vType="DEFAULT_VEHTYPE" speedFactor="0.90" vaporized=""/>
    <tripinfo id="f_3.6" depart="75.00" departLane="193714501#0_0" departPos="5.10" departSpeed="0.00" departDelay="3.00" arrival="135.00" arrivalLane="422972291_1" arrivalPos="44.85" arrivalSpeed="19.30" duration="60.00" routeLength="394.76" waitingTime="26.00" waitingCount="1" stopTime="0.00" timeLoss="47.46" rerouteNo="0" devices="tripinfo_f_3.6" vType="DEFAULT_VEHTYPE" speedFactor="1.14" vaporized=""/>
    <tripinfo id="f_4.5" depart="60.00" departLane="192748755#0_0" departPos="5.10" departSpeed="0.00" departDelay="0.00" arrival="136.00" arrivalLane="192748775_1" arrivalPos="327.83" arrivalSpeed="23.30" duration="76.00" routeLength="475.24" waitingTime="36.00" waitingCount="1" stopTime="0.00" timeLoss="49.19" rerouteNo="0" devices="tripinfo_f_4.5" vType="DEFAULT_VEHTYPE" speedFactor="0.85" vaporized=""/>
    <tripinfo id="f_2.7" depart="84.00" departLane="193714501#0_0" departPos="5.10" departSpeed="0.00" departDelay="0.00" arrival="137.00" arrivalLane="422972291_1" arrivalPos="44.85" arrivalSpeed="20.42" duration="53.00" routeLength="394.76" waitingTime="19.00" waitingCount="1" stopTime="0.00" timeLoss="36.44" rerouteNo="0" devices="tripinfo_f_2.7" vType="DEFAULT_VEHTYPE" speedFactor="0.88" vaporized=""/>
    <tripinfo id="f_7.5" depart="66.00" departLane="193714501#0_0" departPos="5.10" departSpeed="0.00" departDelay="6.00" arrival="138.00" arrivalLane="-192748755#2_0" arrivalPos="103.11" arrivalSpeed="14.12" duration="72.00" routeLength="437.50" waitingTime="34.00" waitingCount="1" stopTime="0.00" timeLoss="50.35" rerouteNo="0" devices="tripinfo_f_7.5" vType="DEFAULT_VEHTYPE" speedFactor="1.02" vaporized=""/>
    <tripinfo id="f_8.5" depart="69.00" departLane="193714501#0_0" departPos="5.10" departSpeed="0.00" departDelay="9.00" arrival="138.00" arrivalLane="192748767#0_0" arrivalPos="97.24" arrivalSpeed="15.12" duration="69.00" routeLength="433.67" waitingTime="31.00" waitingCount="1" stopTime="0.00" timeLoss="50.80" rerouteNo="0" devices="tripinfo_f_8.5" vType="DEFAULT_VEHTYPE" speedFactor="1.10" vaporized=""/>
    <tripinfo id="f_4.6" depart="72.00" departLane="192748755#0_0" departPos="5.10" departSpeed="0.00" departDelay="0.00" arrival="138.00" arrivalLane="192748775_1" arrivalPos="327.83" arrivalSpeed="27.78" duration="66.00" routeLength="475.24" waitingTime="26.00" waitingCount="1" stopTime="0.00" timeLoss="43.09" rerouteNo="0" devices="tripinfo_f_4.6" vType="DEFAULT_VEHTYPE" speedFactor="1.02" vaporized=""/>
    <tripinfo id="f_3.7" depart="87.00" departLane="193714501#0_0" departPos="5.10" departSpeed="0.00" departDelay="3.00" arrival="138.00" arrivalLane="422972291_1" arrivalPos="44.85" arrivalSpeed="20.04" duration="51.00" routeLength="394.76" waitingTime="17.00" waitingCount="1" stopTime="0.00" timeLoss="35.33" rerouteNo="0" devices="tripinfo_f_3.7" vType="DEFAULT_VEHTYPE" speedFactor="0.91" vaporized=""/>
    <tripinfo id="f_2.8" depart="96.00" departLane="193714501#0_0" departPos="5.10" departSpeed="0.00" departDelay="0.00" arrival="140.00" arrivalLane="422972291_1" arrivalPos="44.85" arrivalSpeed="22.37" duration="44.00" routeLength="394.76" waitingTime="10.00" waitingCount="1" stopTime="0.00" timeLoss="28.87" rerouteNo="0" devices="tripinfo_f_2.8" vType="DEFAULT_VEHTYPE" speedFactor="0.96" vaporized=""/>
    <tripinfo id="f_7.6" depart="78.00" departLane="193714501#0_0" departPos="5.10" departSpeed="0.00" departDelay="6.00" arrival="141.00" arrivalLane="-192748755#2_0" arrivalPos="103.11" arrivalSpeed="15.49" duration="63.00" routeLength="437.50" waitingTime="26.00" waitingCount="1" stopTime="0.00" timeLoss="43.27" rerouteNo="0" devices="tripinfo_f_7.6" vType="DEFAULT_VEHTYPE" speedFactor="1.12" vaporized=""/>