<?xml version="1.0" encoding="UTF-8"?>

<!-- generated on 2024-02-18 16:48:39 by Eclipse SUMO sumo Version 1.19.0
<configuration xmlns:xsi="http://www.w3.org/2001/XMLSchema-instance" xsi:noNamespaceSchemaLocation="http://sumo.dlr.de/xsd/sumoConfiguration.xsd">

    <input>
        <net-file value="./Simulation/osm.net.xml"/>
        <route-files value="./Simulation/demand.rou.xml"/>
        <additional-files value="./Simulation/detectors.xml"/>
    </input>

    <output>
        <tripinfo-output value="tripinfo.xml"/>
    </output>

    <processing>
        <waiting-time-memory value="2000"/>
    </processing>

    <report>
        <no-warnings value="true"/>
        <duration-log.disable value="true"/>
        <no-step-log value="true"/>
    </report>

    <traci_server>
        <remote-port value="52134"/>
    </traci_server>

    <gui_only>
        <gui-settings-file value="./Simulation/viewsettings.xml"/>
        <quit-on-end value="true"/>
        <start value="false"/>
    </gui_only>

</configuration>
-->

<tripinfos xmlns:xsi="http://www.w3.org/2001/XMLSchema-instance" xsi:noNamespaceSchemaLocation="http://sumo.dlr.de/xsd/tripinfo_file.xsd">
    <tripinfo id="f_6.0" depart="6.00" departLane="192748755#0_0" departPos="5.10" departSpeed="0.00" departDelay="6.00" arrival="24.00" arrivalLane="422972291_0" arrivalPos="44.85" arrivalSpeed="20.53" duration="18.00" routeLength="188.57" waitingTime="0.00" waitingCount="0" stopTime="0.00" timeLoss="7.39" rerouteNo="0" devices="tripinfo_f_6.0" vType="type1" speedFactor="1.05" vaporized=""/>
    <tripinfo id="f_5.0" depart="3.00" departLane="192748755#0_0" departPos="5.10" departSpeed="0.00" departDelay="3.00" arrival="26.00" arrivalLane="192748767#0_0" arrivalPos="97.24" arrivalSpeed="10.53" duration="23.00" routeLength="208.43" waitingTime="0.00" waitingCount="0" stopTime="0.00" timeLoss="4.08" rerouteNo="0" devices="tripinfo_f_5.0" vType="type1" speedFactor="0.83" vaporized=""/>
    <tripinfo id="f_0.0" depart="0.00" departLane="-406769344#2_0" departPos="5.10" departSpeed="0.00" departDelay="0.00" arrival="33.00" arrivalLane="192748775_0" arrivalPos="327.83" arrivalSpeed="28.98" duration="33.00" routeLength="578.61" waitingTime="0.00" waitingCount="0" stopTime="0.00" timeLoss="5.37" rerouteNo="0" devices="tripinfo_f_0.0" vType="type1" speedFactor="1.06" vaporized=""/>
    <tripinfo id="f_6.1" depart="16.00" departLane="192748755#0_0" departPos="5.10" departSpeed="0.00" departDelay="5.71" arrival="33.00" arrivalLane="422972291_0" arrivalPos="44.85" arrivalSpeed="22.34" duration="17.00" routeLength="188.57" waitingTime="0.00" waitingCount="0" stopTime="0.00" timeLoss="5.31" rerouteNo="0" devices="tripinfo_f_6.1" vType="type1" speedFactor="0.93" vaporized=""/>
    <tripinfo id="f_5.1" depart="13.00" departLane="192748755#0_0" departPos="5.10" departSpeed="0.00" departDelay="2.71" arrival="34.00" arrivalLane="192748767#0_0" arrivalPos="97.24" arrivalSpeed="13.21" duration="21.00" routeLength="208.43" waitingTime="0.00" waitingCount="0" stopTime="0.00" timeLoss="4.55" rerouteNo="0" devices="tripinfo_f_5.1" vType="type1" speedFactor="0.99" vaporized=""/>
    <tripinfo id="f_1.0" depart="3.00" departLane="-406769344#2_0" departPos="5.10" departSpeed="0.00" departDelay="3.00" arrival="36.00" arrivalLane="-192748755#2_1" arrivalPos="103.11" arrivalSpeed="12.19" duration="33.00" routeLength="363.38" waitingTime="0.00" waitingCount="0" stopTime="0.00" timeLoss="4.44" rerouteNo="0" devices="tripinfo_f_1.0" vType="type1" speedFactor="0.94" vaporized=""/>
    <tripinfo id="f_6.2" depart="26.00" departLane="192748755#0_0" departPos="5.10" departSpeed="0.00" departDelay="5.43" arrival="43.00" arrivalLane="422972291_0" arrivalPos="44.85" arrivalSpeed="20.71" duration="17.00" routeLength="188.57" waitingTime="0.00" waitingCount="0" stopTime="0.00" timeLoss="4.04" rerouteNo="0" devices="tripinfo_f_6.2" vType="type1" speedFactor="0.83" vaporized=""/>
    <tripinfo id="f_5.2" depart="23.00" departLane="192748755#0_0" departPos="5.10" departSpeed="0.00" departDelay="2.43" arrival="45.00" arrivalLane="192748767#0_0" arrivalPos="97.24" arrivalSpeed="12.09" duration="22.00" routeLength="208.43" waitingTime="0.00" waitingCount="0" stopTime="0.00" timeLoss="4.07" rerouteNo="0" devices="tripinfo_f_5.2" vType="type1" speedFactor="0.89" vaporized=""/>
    <tripinfo id="f_4.0" depart="0.00" departLane="192748755#0_0" departPos="5.10" departSpeed="0.00" departDelay="0.00" arrival="51.00" arrivalLane="192748775_1" arrivalPos="327.83" arrivalSpeed="27.85" duration="51.00" routeLength="475.24" waitingTime="16.00" waitingCount="1" stopTime="0.00" timeLoss="28.19" rerouteNo="0" devices="tripinfo_f_4.0" vType="type1" speedFactor="1.03" vaporized=""/>
    <tripinfo id="f_4.1" depart="11.00" departLane="192748755#0_0" departPos="5.10" departSpeed="0.00" departDelay="0.71" arrival="52.00" arrivalLane="192748775_1" arrivalPos="327.83" arrivalSpeed="31.15" duration="41.00" routeLength="475.24" waitingTime="6.00" waitingCount="1" stopTime="0.00" timeLoss="20.44" rerouteNo="0" devices="tripinfo_f_4.1" vType="type1" speedFactor="1.12" vaporized=""/>
    <tripinfo id="f_2.0" depart="0.00" departLane="193714501#0_0" departPos="5.10" departSpeed="0.00" departDelay="0.00" arrival="53.00" arrivalLane="422972291_0" arrivalPos="44.85" arrivalSpeed="19.54" duration="53.00" routeLength="394.76" waitingTime="23.00" waitingCount="1" stopTime="0.00" timeLoss="38.79" rerouteNo="0" devices="tripinfo_f_2.0" vType="type1" speedFactor="1.01" vaporized=""/>
    <tripinfo id="f_3.0" depart="3.00" departLane="193714501#0_0" departPos="5.10" departSpeed="0.00" departDelay="3.00" arrival="54.00" arrivalLane="422972291_0" arrivalPos="44.85" arrivalSpeed="18.75" duration="51.00" routeLength="394.76" waitingTime="19.00" waitingCount="1" stopTime="0.00" timeLoss="37.58" rerouteNo="0" devices="tripinfo_f_3.0" vType="type1" speedFactor="1.08" vaporized=""/>
    <tripinfo id="f_2.1" depart="12.00" departLane="193714501#0_0" departPos="5.10" departSpeed="0.00" departDelay="1.71" arrival="56.00" arrivalLane="422972291_1" arrivalPos="44.85" arrivalSpeed="18.43" duration="44.00" routeLength="394.76" waitingTime="9.00" waitingCount="1" stopTime="0.00" timeLoss="29.91" rerouteNo="0" devices="tripinfo_f_2.1" vType="type1" speedFactor="1.03" vaporized=""/>
    <tripinfo id="f_4.2" depart="21.00" departLane="192748755#0_0" departPos="5.10" departSpeed="0.00" departDelay="0.43" arrival="56.00" arrivalLane="192748775_1" arrivalPos="327.83" arrivalSpeed="26.34" duration="35.00" routeLength="475.24" waitingTime="0.00" waitingCount="0" stopTime="0.00" timeLoss="10.59" rerouteNo="0" devices="tripinfo_f_4.2" vType="type1" speedFactor="0.97" vaporized=""/>
    <tripinfo id="f_3.1" depart="15.00" departLane="193714501#0_0" departPos="5.10" departSpeed="0.00" departDelay="4.71" arrival="58.00" arrivalLane="422972291_1" arrivalPos="44.85" arrivalSpeed="21.08" duration="43.00" routeLength="394.76" waitingTime="9.00" waitingCount="1" stopTime="0.00" timeLoss="28.76" rerouteNo="0" devices="tripinfo_f_3.1" vType="type1" speedFactor="1.05" vaporized=""/>
    <tripinfo id="f_2.2" depart="24.00" departLane="193714501#0_0" departPos="5.10" departSpeed="0.00" departDelay="3.43" arrival="59.00" arrivalLane="422972291_1" arrivalPos="44.85" arrivalSpeed="21.64" duration="35.00" routeLength="394.76" waitingTime="0.00" waitingCount="0" stopTime="0.00" timeLoss="20.63" rerouteNo="0" devices="tripinfo_f_2.2" vType="type1" speedFactor="1.02" vaporized=""/>
    <tripinfo id="f_7.0" depart="6.00" departLane="193714501#0_0" departPos="5.10" departSpeed="0.00" departDelay="6.00" arrival="61.00" arrivalLane="-192748755#2_0" arrivalPos="103.11" arrivalSpeed="12.00" duration="55.00" routeLength="437.50" waitingTime="17.00" waitingCount="1" stopTime="0.00" timeLoss="30.06" rerouteNo="0" devices="tripinfo_f_7.0" vType="type1" speedFactor="0.89" vaporized=""/>
    <tripinfo id="f_8.0" depart="9.00" departLane="193714501#0_0" departPos="5.10" departSpeed="0.00" departDelay="9.00" arrival="61.00" arrivalLane="192748767#0_0" arrivalPos="97.24" arrivalSpeed="11.92" duration="52.00" routeLength="433.67" waitingTime="16.00" waitingCount="1" stopTime="0.00" timeLoss="30.92" rerouteNo="0" devices="tripinfo_f_8.0" vType="type1" speedFactor="0.94" vaporized=""/>
    <tripinfo id="f_3.2" depart="27.00" departLane="193714501#0_0" departPos="5.10" departSpeed="0.00" departDelay="6.43" arrival="61.00" arrivalLane="422972291_1" arrivalPos="44.85" arrivalSpeed="20.80" duration="34.00" routeLength="394.76" waitingTime="0.00" waitingCount="0" stopTime="0.00" timeLoss="19.44" rerouteNo="0" devices="tripinfo_f_3.2" vType="type1" speedFactor="1.01" vaporized=""/>
    <tripinfo id="f_0.1" depart="11.00" departLane="-406769344#2_0" departPos="5.10" departSpeed="0.00" departDelay="0.71" arrival="66.00" arrivalLane="192748775_0" arrivalPos="327.83" arrivalSpeed="22.62" duration="55.00" routeLength="578.61" waitingTime="11.00" waitingCount="1" stopTime="0.00" timeLoss="20.80" rerouteNo="0" devices="tripinfo_f_0.1" vType="type1" speedFactor="0.86" vaporized=""/>
    <tripinfo id="f_7.1" depart="18.00" departLane="193714501#0_0" departPos="5.10" departSpeed="0.00" departDelay="7.71" arrival="66.00" arrivalLane="-192748755#2_0" arrivalPos="103.11" arrivalSpeed="11.34" duration="48.00" routeLength="437.50" waitingTime="6.00" waitingCount="1" stopTime="0.00" timeLoss="22.94" rerouteNo="0" devices="tripinfo_f_7.1" vType="type1" speedFactor="0.88" vaporized=""/>
    <tripinfo id="f_0.2" depart="21.00" departLane="-406769344#2_0" departPos="5.10" departSpeed="0.00" departDelay="0.43" arrival="67.00" arrivalLane="192748775_0" arrivalPos="327.83" arrivalSpeed="24.78" duration="46.00" routeLength="578.61" waitingTime="3.00" waitingCount="1" stopTime="0.00" timeLoss="15.19" rerouteNo="0" devices="tripinfo_f_0.2" vType="type1" speedFactor="0.94" vaporized=""/>
    <tripinfo id="f_0.3" depart="31.00" departLane="-406769344#2_0" departPos="5.10" departSpeed="0.00" departDelay="0.14" arrival="69.00" arrivalLane="192748775_0" arrivalPos="327.83" arrivalSpeed="25.07" duration="38.00" routeLength="578.61" waitingTime="0.00" waitingCount="0" stopTime="0.00" timeLoss="7.26" rerouteNo="0" devices="tripinfo_f_0.3" vType="type1" speedFactor="0.95" vaporized=""/>
    <tripinfo id="f_5.3" depart="33.00" departLane="192748755#0_0" departPos="5.10" departSpeed="0.00" departDelay="2.14" arrival="71.00" arrivalLane="192748767#0_0" arrivalPos="97.24" arrivalSpeed="13.17" duration="38.00" routeLength="208.43" waitingTime="13.00" waitingCount="1" stopTime="0.00" timeLoss="22.09" rerouteNo="0" devices="tripinfo_f_5.3" vType="type1" speedFactor="1.01" vaporized=""/>
    <tripinfo id="f_6.3" depart="36.00" departLane="192748755#0_0" departPos="5.10" departSpeed="0.00" departDelay="5.14" arrival="71.00" arrivalLane="422972291_0" arrivalPos="44.85" arrivalSpeed="19.64" duration="35.00" routeLength="188.57" waitingTime="12.00" waitingCount="1" stopTime="0.00" timeLoss="25.35" rerouteNo="0" devices="tripinfo_f_6.3" vType="type1" speedFactor="1.17" vaporized=""/>
    <tripinfo id="f_1.1" depart="14.00" departLane="-406769344#2_0" departPos="5.10" departSpeed="0.00" departDelay="3.71" arrival="73.00" arrivalLane="-192748755#2_1" arrivalPos="103.11" arrivalSpeed="14.95" duration="59.00" routeLength="363.38" waitingTime="25.00" waitingCount="1" stopTime="0.00" timeLoss="34.64" rerouteNo="0" devices="tripinfo_f_1.1" vType="type1" speedFactor="1.09" vaporized=""/>
    <tripinfo id="f_6.4" depart="47.00" departLane="192748755#0_0" departPos="5.10" departSpeed="0.00" departDelay="5.86" arrival="74.00" arrivalLane="422972291_0" arrivalPos="44.85" arrivalSpeed="20.63" duration="27.00" routeLength="188.57" waitingTime="3.00" waitingCount="1" stopTime="0.00" timeLoss="16.68" rerouteNo="0" devices="tripinfo_f_6.4" vType="type1" speedFactor="1.09" vaporized=""/>
    <tripinfo id="f_1.2" depart="24.00" departLane="-406769344#2_0" departPos="5.10" departSpeed="0.00" departDelay="3.43" arrival="75.00" arrivalLane="-192748755#2_1" arrivalPos="103.11" arrivalSpeed="15.49" duration="51.00" routeLength="363.38" waitingTime="18.00" waitingCount="1" stopTime="0.00" timeLoss="27.86" rerouteNo="0" devices="tripinfo_f_1.2" vType="type1" speedFactor="1.16" vaporized=""/>
    <tripinfo id="f_5.4" depart="44.00" departLane="192748755#0_0" departPos="5.10" departSpeed="0.00" departDelay="2.86" arrival="75.00" arrivalLane="192748767#0_0" arrivalPos="97.24" arrivalSpeed="12.18" duration="31.00" routeLength="208.43" waitingTime="5.00" waitingCount="1" stopTime="0.00" timeLoss="14.59" rerouteNo="0" devices="tripinfo_f_5.4" vType="type1" speedFactor="0.96" vaporized=""/>
    <tripinfo id="f_1.3" depart="34.00" departLane="-406769344#2_0" departPos="5.10" departSpeed="0.00" departDelay="3.14" arrival="77.00" arrivalLane="-192748755#2_1" arrivalPos="103.11" arrivalSpeed="12.33" duration="43.00" routeLength="363.38" waitingTime="9.00" waitingCount="1" stopTime="0.00" timeLoss="19.60" rerouteNo="0" devices="tripinfo_f_1.3" vType="type1" speedFactor="1.13" vaporized=""/>
    <tripinfo id="f_0.4" depart="42.00" departLane="-406769344#2_0" departPos="5.10" departSpeed="0.00" departDelay="0.86" arrival="77.00" arrivalLane="192748775_0" arrivalPos="327.83" arrivalSpeed="26.83" duration="35.00" routeLength="578.61" waitingTime="0.00" waitingCount="0" stopTime="0.00" timeLoss="4.87" rerouteNo="0" devices="tripinfo_f_0.4" vType="type1" speedFactor="0.97" vaporized=""/>
    <tripinfo id="f_1.4" depart="44.00" departLane="-406769344#2_0" departPos="5.10" departSpeed="0.00" departDelay="2.86" arrival="79.00" arrivalLane="-192748755#2_1" arrivalPos="103.11" arrivalSpeed="16.11" duration="35.00" routeLength="363.38" waitingTime="0.00" waitingCount="0" stopTime="0.00" timeLoss="12.43" rerouteNo="0" devices="tripinfo_f_1.4" vType="type1" speedFactor="1.18" vaporized=""/>
    <tripinfo id="f_6.5" depart="57.00" departLane="192748755#0_0" departPos="5.10" departSpeed="0.00" departDelay="5.57" arrival="79.00" arrivalLane="422972291_0" arrivalPos="44.85" arrivalSpeed="19.02" duration="22.00" routeLength="188.57" waitingTime="0.00" waitingCount="0" stopTime="0.00" timeLoss="12.34" rerouteNo="0" devices="tripinfo_f_6.5" vType="type1" speedFactor="1.17" vaporized=""/>
    <tripinfo id="f_5.5" depart="54.00" departLane="192748755#0_0" departPos="5.10" departSpeed="0.00" departDelay="2.57" arrival="80.00" arrivalLane="192748767#0_0" arrivalPos="97.24" arrivalSpeed="11.16" duration="26.00" routeLength="208.43" waitingTime="0.00" waitingCount="0" stopTime="0.00" timeLoss="7.83" rerouteNo="0" devices="tripinfo_f_5.5" vType="type1" speedFactor="0.85" vaporized=""/>
    <tripinfo id="f_6.6" depart="67.00" departLane="192748755#0_0" departPos="5.10" departSpeed="0.00" departDelay="5.28" arrival="83.00" arrivalLane="422972291_0" arrivalPos="44.85" arrivalSpeed="23.12" duration="16.00" routeLength="188.57" waitingTime="0.00" waitingCount="0" stopTime="0.00" timeLoss="5.75" rerouteNo="0" devices="tripinfo_f_6.6" vType="type1" speedFactor="1.08" vaporized=""/>
    <tripinfo id="f_0.5" depart="52.00" departLane="-406769344#2_0" departPos="5.10" departSpeed="0.00" departDelay="0.57" arrival="85.00" arrivalLane="192748775_0" arrivalPos="327.83" arrivalSpeed="30.07" duration="33.00" routeLength="578.61" waitingTime="0.00" waitingCount="0" stopTime="0.00" timeLoss="5.72" rerouteNo="0" devices="tripinfo_f_0.5" vType="type1" speedFactor="1.09" vaporized=""/>
    <tripinfo id="f_5.6" depart="64.00" departLane="192748755#0_0" departPos="5.10" departSpeed="0.00" departDelay="2.28" arrival="85.00" arrivalLane="192748767#0_0" arrivalPos="97.24" arrivalSpeed="12.92" duration="21.00" routeLength="208.43" waitingTime="0.00" waitingCount="0" stopTime="0.00" timeLoss="4.55" rerouteNo="0" devices="tripinfo_f_5.6" vType="type1" speedFactor="0.97" vaporized=""/>
    <tripinfo id="f_4.3" depart="31.00" departLane="192748755#0_0" departPos="5.10" departSpeed="0.00" departDelay="0.14" arrival="94.00" arrivalLane="192748775_1" arrivalPos="327.83" arrivalSpeed="31.88" duration="63.00" routeLength="475.24" waitingTime="29.00" waitingCount="1" stopTime="0.00" timeLoss="43.24" rerouteNo="0" devices="tripinfo_f_4.3" vType="type1" speedFactor="1.15" vaporized=""/>
    <tripinfo id="f_4.4" depart="42.00" departLane="192748755#0_0" departPos="5.10" departSpeed="0.00" departDelay="0.86" arrival="97.00" arrivalLane="192748775_1" arrivalPos="327.83" arrivalSpeed="27.76" duration="55.00" routeLength="475.24" waitingTime="21.00" waitingCount="1" stopTime="0.00" timeLoss="32.93" rerouteNo="0" devices="tripinfo_f_4.4" vType="type1" speedFactor="1.03" vaporized=""/>
    <tripinfo id="f_2.3" depart="36.00" departLane="193714501#0_0" departPos="5.10" departSpeed="0.00" departDelay="5.14" arrival="99.00" arrivalLane="422972291_0" arrivalPos="44.85" arrivalSpeed="18.58" duration="63.00" routeLength="394.76" waitingTime="30.00" waitingCount="1" stopTime="0.00" timeLoss="47.41" rerouteNo="0" devices="tripinfo_f_2.3" vType="type1" speedFactor="0.93" vaporized=""/>
    <tripinfo id="f_3.3" depart="39.00" departLane="193714501#0_0" departPos="5.10" departSpeed="0.00" departDelay="8.14" arrival="100.00" arrivalLane="422972291_1" arrivalPos="44.85" arrivalSpeed="19.80" duration="61.00" routeLength="394.76" waitingTime="29.00" waitingCount="1" stopTime="0.00" timeLoss="48.88" rerouteNo="0" devices="tripinfo_f_3.3" vType="type1" speedFactor="1.18" vaporized=""/>
    <tripinfo id="f_2.4" depart="48.00" departLane="193714501#0_0" departPos="5.10" departSpeed="0.00" departDelay="6.86" arrival="102.00" arrivalLane="422972291_1" arrivalPos="44.85" arrivalSpeed="19.53" duration="54.00" routeLength="394.76" waitingTime="21.00" waitingCount="1" stopTime="0.00" timeLoss="40.94" rerouteNo="0" devices="tripinfo_f_2.4" vType="type1" speedFactor="1.10" vaporized=""/>
    <tripinfo id="f_4.5" depart="52.00" departLane="192748755#0_0" departPos="5.10" departSpeed="0.00" departDelay="0.57" arrival="102.00" arrivalLane="192748775_1" arrivalPos="327.83" arrivalSpeed="22.33" duration="50.00" routeLength="475.24" waitingTime="11.00" waitingCount="1" stopTime="0.00" timeLoss="22.84" rerouteNo="0" devices="tripinfo_f_4.5" vType="type1" speedFactor="0.85" vaporized=""/>
    <tripinfo id="f_8.1" depart="21.00" departLane="193714501#0_0" departPos="5.10" departSpeed="0.00" departDelay="10.71" arrival="103.00" arrivalLane="192748767#0_0" arrivalPos="97.24" arrivalSpeed="12.49" duration="82.00" routeLength="433.67" waitingTime="39.00" waitingCount="2" stopTime="0.00" timeLoss="60.67" rerouteNo="0" devices="tripinfo_f_8.1" vType="type1" speedFactor="0.94" vaporized=""/>
    <tripinfo id="f_3.4" depart="51.00" departLane="193714501#0_0" departPos="5.10" departSpeed="0.00" departDelay="9.86" arrival="104.00" arrivalLane="422972291_1" arrivalPos="44.85" arrivalSpeed="21.12" duration="53.00" routeLength="394.76" waitingTime="18.00" waitingCount="1" stopTime="0.00" timeLoss="36.83" rerouteNo="0" devices="tripinfo_f_3.4" vType="type1" speedFactor="0.90" vaporized=""/>
    <tripinfo id="f_4.6" depart="62.00" departLane="192748755#0_0" departPos="5.10" departSpeed="0.00" departDelay="0.28" arrival="104.00" arrivalLane="192748775_1" arrivalPos="327.83" arrivalSpeed="25.63" duration="42.00" routeLength="475.24" waitingTime="3.00" waitingCount="1" stopTime="0.00" timeLoss="18.91" rerouteNo="0" devices="tripinfo_f_4.6" vType="type1" speedFactor="1.02" vaporized=""/>
    <tripinfo id="f_2.5" depart="60.00" departLane="193714501#0_0" departPos="5.10" departSpeed="0.00" departDelay="8.57" arrival="106.00" arrivalLane="422972291_1" arrivalPos="44.85" arrivalSpeed="21.36" duration="46.00" routeLength="394.76" waitingTime="11.00" waitingCount="1" stopTime="0.00" timeLoss="29.55" rerouteNo="0" devices="tripinfo_f_2.5" vType="type1" speedFactor="0.90" vaporized=""/>
    <tripinfo id="f_4.7" depart="73.00" departLane="192748755#0_0" departPos="5.10" departSpeed="0.00" departDelay="1.00" arrival="106.00" arrivalLane="192748775_1" arrivalPos="327.83" arrivalSpeed="24.42" duration="33.00" routeLength="475.24" waitingTime="0.00" waitingCount="0" stopTime="0.00" timeLoss="7.07" rerouteNo="0" devices="tripinfo_f_4.7" vType="type1" speedFactor="0.91" vaporized=""/>
    <tripinfo id="f_7.2" depart="30.00" departLane="193714501#0_0" departPos="5.10" departSpeed="0.00" departDelay="9.43" arrival="107.00" arrivalLane="-192748755#2_0" arrivalPos="103.11" arrivalSpeed="10.91" duration="77.00" routeLength="437.50" waitingTime="32.00" waitingCount="1" stopTime="0.00" timeLoss="51.53" rerouteNo="0" devices="tripinfo_f_7.2" vType="type1" speedFactor="0.87" vaporized=""/>
    <tripinfo id="f_8.2" depart="33.00" departLane="193714501#0_0" departPos="5.10" departSpeed="0.00" departDelay="12.43" arrival="108.00" arrivalLane="192748767#0_0" arrivalPos="97.24" arrivalSpeed="11.65" duration="75.00" routeLength="433.67" waitingTime="30.00" waitingCount="1" stopTime="0.00" timeLoss="52.60" rerouteNo="0" devices="tripinfo_f_8.2" vType="type1" speedFactor="0.92" vaporized=""/>
    <tripinfo id="f_3.5" depart="63.00" departLane="193714501#0_0" departPos="5.10" departSpeed="0.00" departDelay="11.57" arrival="108.00" arrivalLane="422972291_1" arrivalPos="44.85" arrivalSpeed="22.82" duration="45.00" routeLength="394.76" waitingTime="10.00" waitingCount="1" stopTime="0.00" timeLoss="27.90" rerouteNo="0" devices="tripinfo_f_3.5" vType="type1" speedFactor="0.88" vaporized=""/>
    <tripinfo id="f_2.6" depart="72.00" departLane="193714501#0_0" departPos="5.10" departSpeed="0.00" departDelay="10.28" arrival="109.00" arrivalLane="422972291_1" arrivalPos="44.85" arrivalSpeed="22.24" duration="37.00" routeLength="394.76" waitingTime="2.00" waitingCount="1" stopTime="0.00" timeLoss="20.74" rerouteNo="0" devices="tripinfo_f_2.6" vType="type1" speedFactor="0.90" vaporized=""/>
    <tripinfo id="f_7.3" depart="42.00" departLane="193714501#0_0" departPos="5.10" departSpeed="0.00" departDelay="11.14" arrival="110.00" arrivalLane="-192748755#2_0" arrivalPos="103.11" arrivalSpeed="13.14" duration="68.00" routeLength="437.50" waitingTime="29.00" waitingCount="1" stopTime="0.00" timeLoss="45.60" rerouteNo="0" devices="tripinfo_f_7.3" vType="type1" speedFactor="0.99" vaporized=""/>
    <tripinfo id="f_8.3" depart="45.00" departLane="193714501#0_0" departPos="5.10" departSpeed="0.00" departDelay="14.14" arrival="110.00" arrivalLane="192748767#0_0" arrivalPos="97.24" arrivalSpeed="12.97" duration="65.00" routeLength="433.67" waitingTime="27.00" waitingCount="1" stopTime="0.00" timeLoss="45.36" rerouteNo="0" devices="tripinfo_f_8.3" vType="type1" speedFactor="1.02" vaporized=""/>
    <tripinfo id="f_0.6" depart="62.00" departLane="-406769344#2_0" departPos="5.10" departSpeed="0.00" departDelay="0.28" arrival="110.00" arrivalLane="192748775_0" arrivalPos="327.83" arrivalSpeed="27.62" duration="48.00" routeLength="578.61" waitingTime="6.00" waitingCount="1" stopTime="0.00" timeLoss="18.73" rerouteNo="0" devices="tripinfo_f_0.6" vType="type1" speedFactor="1.00" vaporized=""/>
    <tripinfo id="f_3.6" depart="75.00" departLane="193714501#0_0" departPos="5.10" departSpeed="0.00" departDelay="13.28" arrival="111.00" arrivalLane="422972291_1" arrivalPos="44.85" arrivalSpeed="24.70" duration="36.00" routeLength="394.76" waitingTime="0.00" waitingCount="0" stopTime="0.00" timeLoss="22.93" rerouteNo="0" devices="tripinfo_f_3.6" vType="type1" speedFactor="1.14" vaporized=""/>
    <tripinfo id="f_0.7" depart="73.00" departLane="-406769344#2_0" departPos="5.10" departSpeed="0.00" departDelay="1.00" arrival="112.00" arrivalLane="192748775_0" arrivalPos="327.83" arrivalSpeed="26.21" duration="39.00" routeLength="578.61" waitingTime="0.00" waitingCount="0" stopTime="0.00" timeLoss="9.23" rerouteNo="0" devices="tripinfo_f_0.7" vType="type1" speedFactor="0.99" vaporized=""/>
    <tripinfo id="f_2.7" depart="84.00" departLane="193714501#0_0" departPos="5.10" departSpeed="0.00" departDelay="12.00" arrival="112.00" arrivalLane="422972291_1" arrivalPos="44.85" arrivalSpeed="22.71" duration="28.00" routeLength="394.76" waitingTime="0.00" waitingCount="0" stopTime="0.00" timeLoss="11.88" rerouteNo="0" devices="tripinfo_f_2.7" vType="type1" speedFactor="0.88" vaporized=""/>
    <tripinfo id="f_7.4" depart="54.00" departLane="193714501#0_0" departPos="5.10" departSpeed="0.00" departDelay="12.86" arrival="113.00" arrivalLane="-192748755#2_0" arrivalPos="103.11" arrivalSpeed="13.38" duration="59.00" routeLength="437.50" waitingTime="20.00" waitingCount="1" stopTime="0.00" timeLoss="37.90" rerouteNo="0" devices="tripinfo_f_7.4" vType="type1" speedFactor="1.04" vaporized=""/>
    <tripinfo id="f_8.4" depart="57.00" departLane="193714501#0_0" departPos="5.10" departSpeed="0.00" departDelay="15.86" arrival="114.00" arrivalLane="192748767#0_0" arrivalPos="97.24" arrivalSpeed="14.36" duration="57.00" routeLength="433.67" waitingTime="18.00" waitingCount="1" stopTime="0.00" timeLoss="37.40" rerouteNo="0" devices="tripinfo_f_8.4" vType="type1" speedFactor="1.04" vaporized=""/>
    <tripinfo id="f_3.7" depart="87.00" departLane="193714501#0_0" departPos="5.10" departSpeed="0.00" departDelay="15.00" arrival="114.00" arrivalLane="422972291_1" arrivalPos="44.85" arrivalSpeed="24.73" duration="27.00" routeLength="394.76" waitingTime="0.00" waitingCount="0" stopTime="0.00" timeLoss="10.74" rerouteNo="0" devices="tripinfo_f_3.7" vType="type1" speedFactor="0.91" vaporized=""/>
    <tripinfo id="f_7.5" depart="66.00" departLane="193714501#0_0" departPos="5.10" departSpeed="0.00" departDelay="14.57" arrival="117.00" arrivalLane="-192748755#2_0" arrivalPos="103.11" arrivalSpeed="13.24" duration="51.00" routeLength="437.50" waitingTime="10.00" waitingCount="1" stopTime="0.00" timeLoss="29.42" rerouteNo="0" devices="tripinfo_f_7.5" vType="type1" speedFactor="1.02" vaporized=""/>
    <tripinfo id="f_8.5" depart="69.00" departLane="193714501#0_0" departPos="5.10" departSpeed="0.00" departDelay="17.57" arrival="117.00" arrivalLane="192748767#0_0" arrivalPos="97.24" arrivalSpeed="14.64" duration="48.00" routeLength="433.67" waitingTime="8.00" waitingCount="1" stopTime="0.00" timeLoss="29.91" rerouteNo="0" devices="tripinfo_f_8.5" vType="type1" speedFactor="1.10" vaporized=""/>
    <tripinfo id="f_0.8" depart="83.00" departLane="-406769344#2_0" departPos="5.10" departSpeed="0.00" departDelay="0.71" arrival="119.00" arrivalLane="192748775_0" arrivalPos="327.83" arrivalSpeed="25.31" duration="36.00" routeLength="578.61" waitingTime="0.00" waitingCount="0" stopTime="0.00" timeLoss="4.85" rerouteNo="0" devices="tripinfo_f_0.8" vType="type1" speedFactor="0.94" vaporized=""/>
    <tripinfo id="f_7.6" depart="78.00" departLane="193714501#0_0" departPos="5.10" departSpeed="0.00" departDelay="16.28" arrival="120.00" arrivalLane="-192748755#2_0" arrivalPos="103.11" arrivalSpeed="14.52" duration="42.00" routeLength="437.50" waitingTime="1.00" waitingCount="1" stopTime="0.00" timeLoss="22.13" rerouteNo="0" devices="tripinfo_f_7.6" vType="type1" speedFactor="1.12" vaporized=""/>
    <tripinfo id="f_6.7" depart="79.00" departLane="192748755#0_0" departPos="5.10" departSpeed="0.00" departDelay="7.00" arrival="125.00" arrivalLane="422972291_0" arrivalPos="44.85" arrivalSpeed="19.46" duration="46.00" routeLength="188.57" waitingTime="23.00" waitingCount="1" stopTime="0.00" timeLoss="35.31" rerouteNo="0" devices="tripinfo_f_6.7" vType="type1" speedFactor="1.02" vaporized=""/>
    <tripinfo id="f_5.7" depart="76.00" departLane="192748755#0_0" departPos="5.10" departSpeed="0.00" departDelay="4.00" arrival="126.00" arrivalLane="192748767#0_0" arrivalPos="97.24" arrivalSpeed="13.67" duration="50.00" routeLength="208.43" waitingTime="25.00" waitingCount="1" stopTime="0.00" timeLoss="34.59" rerouteNo="0" devices="tripinfo_f_5.7" vType="type1" speedFactor="1.04" vaporized=""/>
    <tripinfo id="f_0.9" depart="93.00" departLane="-406769344#2_0" departPos="5.10" departSpeed="0.00" departDelay="0.43" arrival="128.00" arrivalLane="192748775_0" arrivalPos="327.83" arrivalSpeed="26.46" duration="35.00" routeLength="578.61" waitingTime="0.00" waitingCount="0" stopTime="0.00" timeLoss="5.68" rerouteNo="0" devices="tripinfo_f_0.9" vType="type1" speedFactor="1.00" vaporized=""/>
    <tripinfo id="f_6.8" depart="88.00" departLane="192748755#0_0" departPos="5.10" departSpeed="0.00" departDelay="5.71" arrival="129.00" arrivalLane="422972291_0" arrivalPos="44.85" arrivalSpeed="22.18" duration="41.00" routeLength="188.57" waitingTime="18.00" waitingCount="1" stopTime="0.00" timeLoss="29.90" rerouteNo="0" devices="tripinfo_f_6.8" vType="type1" speedFactor="1.01" vaporized=""/>
    <tripinfo id="f_1.5" depart="55.00" departLane="-406769344#2_0" departPos="5.10" departSpeed="0.00" departDelay="3.57" arrival="130.00" arrivalLane="-192748755#2_1" arrivalPos="103.11" arrivalSpeed="12.99" duration="75.00" routeLength="363.38" waitingTime="38.00" waitingCount="1" stopTime="0.00" timeLoss="47.88" rerouteNo="0" devices="tripinfo_f_1.5" vType="type1" speedFactor="1.00" vaporized=""/>
    <tripinfo id="f_5.8" depart="85.00" departLane="192748755#0_0" departPos="5.10" departSpeed="0.00" departDelay="2.71" arrival="130.00" arrivalLane="192748767#0_0" arrivalPos="97.24" arrivalSpeed="12.94" duration="45.00" routeLength="208.43" waitingTime="21.00" waitingCount="1" stopTime="0.00" timeLoss="29.19" rerouteNo="0" devices="tripinfo_f_5.8" vType="type1" speedFactor="0.98" vaporized=""/>
    <tripinfo id="f_1.6" depart="65.00" departLane="-406769344#2_0" departPos="5.10" departSpeed="0.00" departDelay="3.28" arrival="131.00" arrivalLane="-192748755#2_1" arrivalPos="103.11" arrivalSpeed="13.41" duration="66.00" routeLength="363.38" waitingTime="30.00" waitingCount="1" stopTime="0.00" timeLoss="39.64" rerouteNo="0" devices="tripinfo_f_1.6" vType="type1" speedFactor="1.00" vaporized=""/>