<?xml version="1.0" encoding="UTF-8"?>

<!-- generated on 2024-07-28 22:06:57 by Eclipse SUMO sumo Version 1.19.0
<configuration xmlns:xsi="http://www.w3.org/2001/XMLSchema-instance" xsi:noNamespaceSchemaLocation="http://sumo.dlr.de/xsd/sumoConfiguration.xsd">

    <input>
        <net-file value="./Simulation/osm.net.xml"/>
        <route-files value="./Simulation/demand.rou.xml"/>
        <additional-files value="./Simulation/detectors.xml"/>
    </input>

    <output>
        <tripinfo-output value="tripinfo.xml"/>
    </output>

    <processing>
        <waiting-time-memory value="2000"/>
    </processing>

    <report>
        <no-warnings value="true"/>
        <duration-log.disable value="true"/>
        <no-step-log value="true"/>
    </report>

    <traci_server>
        <remote-port value="63781"/>
    </traci_server>

    <gui_only>
        <gui-settings-file value="./Simulation/viewsettings.xml"/>
        <quit-on-end value="true"/>
        <start value="false"/>
    </gui_only>

</configuration>
-->

<tripinfos xmlns:xsi="http://www.w3.org/2001/XMLSchema-instance" xsi:noNamespaceSchemaLocation="http://sumo.dlr.de/xsd/tripinfo_file.xsd">
    <tripinfo id="f_2.0" depart="0.00" departLane="193714501#0_0" departPos="5.10" departSpeed="0.00" departDelay="0.00" arrival="21.00" arrivalLane="422972291_0" arrivalPos="44.85" arrivalSpeed="27.39" duration="21.00" routeLength="394.76" waitingTime="0.00" waitingCount="0" stopTime="0.00" timeLoss="6.66" rerouteNo="0" devices="tripinfo_f_2.0" vType="type1" speedFactor="1.01" vaporized=""/>
    <tripinfo id="f_3.0" depart="3.00" departLane="193714501#0_0" departPos="5.10" departSpeed="0.00" departDelay="3.00" arrival="24.00" arrivalLane="422972291_0" arrivalPos="44.85" arrivalSpeed="29.20" duration="21.00" routeLength="394.76" waitingTime="0.00" waitingCount="0" stopTime="0.00" timeLoss="7.46" rerouteNo="0" devices="tripinfo_f_3.0" vType="type1" speedFactor="1.08" vaporized=""/>
    <tripinfo id="f_0.0" depart="0.00" departLane="-406769344#2_0" departPos="5.10" departSpeed="0.00" departDelay="0.00" arrival="33.00" arrivalLane="192748775_0" arrivalPos="327.83" arrivalSpeed="28.98" duration="33.00" routeLength="578.61" waitingTime="0.00" waitingCount="0" stopTime="0.00" timeLoss="5.29" rerouteNo="0" devices="tripinfo_f_0.0" vType="type1" speedFactor="1.06" vaporized=""/>
    <tripinfo id="f_7.0" depart="6.00" departLane="193714501#0_0" departPos="5.10" departSpeed="0.00" departDelay="6.00" arrival="38.00" arrivalLane="-192748755#2_0" arrivalPos="103.11" arrivalSpeed="11.76" duration="32.00" routeLength="437.50" waitingTime="0.00" waitingCount="0" stopTime="0.00" timeLoss="7.83" rerouteNo="0" devices="tripinfo_f_7.0" vType="type1" speedFactor="0.89" vaporized=""/>
    <tripinfo id="f_8.0" depart="9.00" departLane="193714501#0_0" departPos="5.10" departSpeed="0.00" departDelay="9.00" arrival="39.00" arrivalLane="192748767#0_0" arrivalPos="97.24" arrivalSpeed="12.34" duration="30.00" routeLength="433.67" waitingTime="0.00" waitingCount="0" stopTime="0.00" timeLoss="8.18" rerouteNo="0" devices="tripinfo_f_8.0" vType="type1" speedFactor="0.94" vaporized=""/>
    <tripinfo id="f_6.0" depart="6.00" departLane="192748755#0_0" departPos="5.10" departSpeed="0.00" departDelay="6.00" arrival="45.00" arrivalLane="422972291_0" arrivalPos="44.85" arrivalSpeed="19.74" duration="39.00" routeLength="188.57" waitingTime="16.00" waitingCount="1" stopTime="0.00" timeLoss="28.54" rerouteNo="0" devices="tripinfo_f_6.0" vType="type1" speedFactor="1.05" vaporized=""/>
    <tripinfo id="f_5.0" depart="3.00" departLane="192748755#0_0" departPos="5.10" departSpeed="0.00" departDelay="3.00" arrival="47.00" arrivalLane="192748767#0_0" arrivalPos="97.24" arrivalSpeed="11.02" duration="44.00" routeLength="208.43" waitingTime="18.00" waitingCount="1" stopTime="0.00" timeLoss="25.11" rerouteNo="0" devices="tripinfo_f_5.0" vType="type1" speedFactor="0.83" vaporized=""/>
    <tripinfo id="f_0.1" depart="8.00" departLane="-406769344#2_0" departPos="5.10" departSpeed="0.00" departDelay="0.00" arrival="47.00" arrivalLane="192748775_0" arrivalPos="327.83" arrivalSpeed="22.52" duration="39.00" routeLength="578.61" waitingTime="0.00" waitingCount="0" stopTime="0.00" timeLoss="5.45" rerouteNo="0" devices="tripinfo_f_0.1" vType="type1" speedFactor="0.86" vaporized=""/>
    <tripinfo id="f_6.1" depart="15.00" departLane="192748755#0_0" departPos="5.10" departSpeed="0.00" departDelay="7.00" arrival="48.00" arrivalLane="422972291_0" arrivalPos="44.85" arrivalSpeed="20.12" duration="33.00" routeLength="188.57" waitingTime="9.00" waitingCount="1" stopTime="0.00" timeLoss="21.58" rerouteNo="0" devices="tripinfo_f_6.1" vType="type1" speedFactor="0.93" vaporized=""/>
    <tripinfo id="f_5.1" depart="12.00" departLane="192748755#0_0" departPos="5.10" departSpeed="0.00" departDelay="4.00" arrival="50.00" arrivalLane="192748767#0_0" arrivalPos="97.24" arrivalSpeed="13.34" duration="38.00" routeLength="208.43" waitingTime="13.00" waitingCount="1" stopTime="0.00" timeLoss="21.43" rerouteNo="0" devices="tripinfo_f_5.1" vType="type1" speedFactor="0.99" vaporized=""/>
    <tripinfo id="f_6.2" depart="23.00" departLane="192748755#0_0" departPos="5.10" departSpeed="0.00" departDelay="7.00" arrival="54.00" arrivalLane="422972291_0" arrivalPos="44.85" arrivalSpeed="20.68" duration="31.00" routeLength="188.57" waitingTime="6.00" waitingCount="1" stopTime="0.00" timeLoss="17.36" rerouteNo="0" devices="tripinfo_f_6.2" vType="type1" speedFactor="0.83" vaporized=""/>
    <tripinfo id="f_4.0" depart="0.00" departLane="192748755#0_0" departPos="5.10" departSpeed="0.00" departDelay="0.00" arrival="55.00" arrivalLane="192748775_1" arrivalPos="327.83" arrivalSpeed="28.41" duration="55.00" routeLength="475.24" waitingTime="21.00" waitingCount="1" stopTime="0.00" timeLoss="32.95" rerouteNo="0" devices="tripinfo_f_4.0" vType="type1" speedFactor="1.03" vaporized=""/>
    <tripinfo id="f_5.2" depart="20.00" departLane="192748755#0_0" departPos="5.10" departSpeed="0.00" departDelay="4.00" arrival="55.00" arrivalLane="192748767#0_0" arrivalPos="97.24" arrivalSpeed="12.21" duration="35.00" routeLength="208.43" waitingTime="9.00" waitingCount="1" stopTime="0.00" timeLoss="16.92" rerouteNo="0" devices="tripinfo_f_5.2" vType="type1" speedFactor="0.89" vaporized=""/>
    <tripinfo id="f_4.1" depart="9.00" departLane="192748755#0_0" departPos="5.10" departSpeed="0.00" departDelay="1.00" arrival="57.00" arrivalLane="192748775_1" arrivalPos="327.83" arrivalSpeed="30.05" duration="48.00" routeLength="475.24" waitingTime="13.00" waitingCount="1" stopTime="0.00" timeLoss="27.12" rerouteNo="0" devices="tripinfo_f_4.1" vType="type1" speedFactor="1.12" vaporized=""/>
    <tripinfo id="f_6.3" depart="31.00" departLane="192748755#0_0" departPos="5.10" departSpeed="0.00" departDelay="7.00" arrival="57.00" arrivalLane="422972291_0" arrivalPos="44.85" arrivalSpeed="21.06" duration="26.00" routeLength="188.57" waitingTime="2.00" waitingCount="1" stopTime="0.00" timeLoss="16.56" rerouteNo="0" devices="tripinfo_f_6.3" vType="type1" speedFactor="1.17" vaporized=""/>
    <tripinfo id="f_5.3" depart="28.00" departLane="192748755#0_0" departPos="5.10" departSpeed="0.00" departDelay="4.00" arrival="58.00" arrivalLane="192748767#0_0" arrivalPos="97.24" arrivalSpeed="13.17" duration="30.00" routeLength="208.43" waitingTime="3.00" waitingCount="1" stopTime="0.00" timeLoss="14.18" rerouteNo="0" devices="tripinfo_f_5.3" vType="type1" speedFactor="1.01" vaporized=""/>
    <tripinfo id="f_4.2" depart="18.00" departLane="192748755#0_0" departPos="5.10" departSpeed="0.00" departDelay="2.00" arrival="61.00" arrivalLane="192748775_1" arrivalPos="327.83" arrivalSpeed="26.36" duration="43.00" routeLength="475.24" waitingTime="6.00" waitingCount="1" stopTime="0.00" timeLoss="18.62" rerouteNo="0" devices="tripinfo_f_4.2" vType="type1" speedFactor="0.97" vaporized=""/>
    <tripinfo id="f_6.4" depart="39.00" departLane="192748755#0_0" departPos="5.10" departSpeed="0.00" departDelay="7.00" arrival="61.00" arrivalLane="422972291_0" arrivalPos="44.85" arrivalSpeed="19.91" duration="22.00" routeLength="188.57" waitingTime="0.00" waitingCount="0" stopTime="0.00" timeLoss="12.22" rerouteNo="0" devices="tripinfo_f_6.4" vType="type1" speedFactor="1.09" vaporized=""/>
    <tripinfo id="f_4.3" depart="26.00" departLane="192748755#0_0" departPos="5.10" departSpeed="0.00" departDelay="2.00" arrival="62.00" arrivalLane="192748775_1" arrivalPos="327.83" arrivalSpeed="27.69" duration="36.00" routeLength="475.24" waitingTime="0.00" waitingCount="0" stopTime="0.00" timeLoss="16.08" rerouteNo="0" devices="tripinfo_f_4.3" vType="type1" speedFactor="1.15" vaporized=""/>
    <tripinfo id="f_5.4" depart="36.00" departLane="192748755#0_0" departPos="5.10" departSpeed="0.00" departDelay="4.00" arrival="63.00" arrivalLane="192748767#0_0" arrivalPos="97.24" arrivalSpeed="12.21" duration="27.00" routeLength="208.43" waitingTime="0.00" waitingCount="0" stopTime="0.00" timeLoss="10.09" rerouteNo="0" devices="tripinfo_f_5.4" vType="type1" speedFactor="0.96" vaporized=""/>
    <tripinfo id="f_4.4" depart="34.00" departLane="192748755#0_0" departPos="5.10" departSpeed="0.00" departDelay="2.00" arrival="64.00" arrivalLane="192748775_1" arrivalPos="327.83" arrivalSpeed="27.59" duration="30.00" routeLength="475.24" waitingTime="0.00" waitingCount="0" stopTime="0.00" timeLoss="7.29" rerouteNo="0" devices="tripinfo_f_4.4" vType="type1" speedFactor="1.03" vaporized=""/>
    <tripinfo id="f_1.0" depart="3.00" departLane="-406769344#2_0" departPos="5.10" departSpeed="0.00" departDelay="3.00" arrival="65.00" arrivalLane="-192748755#2_1" arrivalPos="103.11" arrivalSpeed="12.19" duration="62.00" routeLength="363.38" waitingTime="23.00" waitingCount="1" stopTime="0.00" timeLoss="33.71" rerouteNo="0" devices="tripinfo_f_1.0" vType="type1" speedFactor="0.94" vaporized=""/>
    <tripinfo id="f_6.5" depart="47.00" departLane="192748755#0_0" departPos="5.10" departSpeed="0.00" departDelay="7.00" arrival="66.00" arrivalLane="422972291_0" arrivalPos="44.85" arrivalSpeed="19.25" duration="19.00" routeLength="188.57" waitingTime="0.00" waitingCount="0" stopTime="0.00" timeLoss="9.76" rerouteNo="0" devices="tripinfo_f_6.5" vType="type1" speedFactor="1.17" vaporized=""/>
    <tripinfo id="f_1.1" depart="11.00" departLane="-406769344#2_0" departPos="5.10" departSpeed="0.00" departDelay="3.00" arrival="67.00" arrivalLane="-192748755#2_1" arrivalPos="103.11" arrivalSpeed="14.47" duration="56.00" routeLength="363.38" waitingTime="20.00" waitingCount="1" stopTime="0.00" timeLoss="31.24" rerouteNo="0" devices="tripinfo_f_1.1" vType="type1" speedFactor="1.09" vaporized=""/>
    <tripinfo id="f_5.5" depart="44.00" departLane="192748755#0_0" departPos="5.10" departSpeed="0.00" departDelay="4.00" arrival="68.00" arrivalLane="192748767#0_0" arrivalPos="97.24" arrivalSpeed="11.36" duration="24.00" routeLength="208.43" waitingTime="0.00" waitingCount="0" stopTime="0.00" timeLoss="5.82" rerouteNo="0" devices="tripinfo_f_5.5" vType="type1" speedFactor="0.85" vaporized=""/>
    <tripinfo id="f_1.2" depart="19.00" departLane="-406769344#2_0" departPos="5.10" departSpeed="0.00" departDelay="3.00" arrival="69.00" arrivalLane="-192748755#2_1" arrivalPos="103.11" arrivalSpeed="11.82" duration="50.00" routeLength="363.38" waitingTime="14.00" waitingCount="1" stopTime="0.00" timeLoss="26.83" rerouteNo="0" devices="tripinfo_f_1.2" vType="type1" speedFactor="1.16" vaporized=""/>
    <tripinfo id="f_0.2" depart="16.00" departLane="-406769344#2_0" departPos="5.10" departSpeed="0.00" departDelay="0.00" arrival="70.00" arrivalLane="192748775_0" arrivalPos="327.83" arrivalSpeed="25.01" duration="54.00" routeLength="578.61" waitingTime="12.00" waitingCount="1" stopTime="0.00" timeLoss="23.19" rerouteNo="0" devices="tripinfo_f_0.2" vType="type1" speedFactor="0.94" vaporized=""/>
    <tripinfo id="f_1.3" depart="27.00" departLane="-406769344#2_0" departPos="5.10" departSpeed="0.00" departDelay="3.00" arrival="71.00" arrivalLane="-192748755#2_1" arrivalPos="103.11" arrivalSpeed="14.18" duration="44.00" routeLength="363.38" waitingTime="7.00" waitingCount="1" stopTime="0.00" timeLoss="20.02" rerouteNo="0" devices="tripinfo_f_1.3" vType="type1" speedFactor="1.13" vaporized=""/>
    <tripinfo id="f_0.3" depart="24.00" departLane="-406769344#2_0" departPos="5.10" departSpeed="0.00" departDelay="0.00" arrival="72.00" arrivalLane="192748775_0" arrivalPos="327.83" arrivalSpeed="26.02" duration="48.00" routeLength="578.61" waitingTime="6.00" waitingCount="1" stopTime="0.00" timeLoss="17.17" rerouteNo="0" devices="tripinfo_f_0.3" vType="type1" speedFactor="0.95" vaporized=""/>
    <tripinfo id="f_0.4" depart="32.00" departLane="-406769344#2_0" departPos="5.10" departSpeed="0.00" departDelay="0.00" arrival="73.00" arrivalLane="192748775_0" arrivalPos="327.83" arrivalSpeed="26.88" duration="41.00" routeLength="578.61" waitingTime="0.00" waitingCount="0" stopTime="0.00" timeLoss="11.46" rerouteNo="0" devices="tripinfo_f_0.4" vType="type1" speedFactor="0.97" vaporized=""/>
    <tripinfo id="f_2.1" depart="12.00" departLane="193714501#0_0" departPos="5.10" departSpeed="0.00" departDelay="4.00" arrival="74.00" arrivalLane="422972291_0" arrivalPos="44.85" arrivalSpeed="18.43" duration="62.00" routeLength="394.76" waitingTime="29.00" waitingCount="1" stopTime="0.00" timeLoss="47.62" rerouteNo="0" devices="tripinfo_f_2.1" vType="type1" speedFactor="1.03" vaporized=""/>
    <tripinfo id="f_3.1" depart="15.00" departLane="193714501#0_0" departPos="5.10" departSpeed="0.00" departDelay="7.00" arrival="74.00" arrivalLane="422972291_1" arrivalPos="44.85" arrivalSpeed="18.36" duration="59.00" routeLength="394.76" waitingTime="26.00" waitingCount="1" stopTime="0.00" timeLoss="45.13" rerouteNo="0" devices="tripinfo_f_3.1" vType="type1" speedFactor="1.05" vaporized=""/>
    <tripinfo id="f_0.5" depart="40.00" departLane="-406769344#2_0" departPos="5.10" departSpeed="0.00" departDelay="0.00" arrival="75.00" arrivalLane="192748775_0" arrivalPos="327.83" arrivalSpeed="30.02" duration="35.00" routeLength="578.61" waitingTime="0.00" waitingCount="0" stopTime="0.00" timeLoss="8.26" rerouteNo="0" devices="tripinfo_f_0.5" vType="type1" speedFactor="1.09" vaporized=""/>
    <tripinfo id="f_2.2" depart="24.00" departLane="193714501#0_0" departPos="5.10" departSpeed="0.00" departDelay="8.00" arrival="76.00" arrivalLane="422972291_1" arrivalPos="44.85" arrivalSpeed="19.43" duration="52.00" routeLength="394.76" waitingTime="18.00" waitingCount="1" stopTime="0.00" timeLoss="37.70" rerouteNo="0" devices="tripinfo_f_2.2" vType="type1" speedFactor="1.02" vaporized=""/>
    <tripinfo id="f_3.2" depart="27.00" departLane="193714501#0_0" departPos="5.10" departSpeed="0.00" departDelay="11.00" arrival="77.00" arrivalLane="422972291_1" arrivalPos="44.85" arrivalSpeed="19.28" duration="50.00" routeLength="394.76" waitingTime="18.00" waitingCount="1" stopTime="0.00" timeLoss="35.93" rerouteNo="0" devices="tripinfo_f_3.2" vType="type1" speedFactor="1.01" vaporized=""/>
    <tripinfo id="f_2.3" depart="36.00" departLane="193714501#0_0" departPos="5.10" departSpeed="0.00" departDelay="12.00" arrival="79.00" arrivalLane="422972291_1" arrivalPos="44.85" arrivalSpeed="22.18" duration="43.00" routeLength="394.76" waitingTime="9.00" waitingCount="1" stopTime="0.00" timeLoss="27.54" rerouteNo="0" devices="tripinfo_f_2.3" vType="type1" speedFactor="0.93" vaporized=""/>
    <tripinfo id="f_7.1" depart="18.00" departLane="193714501#0_0" departPos="5.10" departSpeed="0.00" departDelay="10.00" arrival="81.00" arrivalLane="-192748755#2_0" arrivalPos="103.11" arrivalSpeed="11.79" duration="63.00" routeLength="437.50" waitingTime="25.00" waitingCount="1" stopTime="0.00" timeLoss="38.36" rerouteNo="0" devices="tripinfo_f_7.1" vType="type1" speedFactor="0.88" vaporized=""/>
    <tripinfo id="f_3.3" depart="39.00" departLane="193714501#0_0" departPos="5.10" departSpeed="0.00" departDelay="15.00" arrival="81.00" arrivalLane="422972291_1" arrivalPos="44.85" arrivalSpeed="20.32" duration="42.00" routeLength="394.76" waitingTime="8.00" waitingCount="1" stopTime="0.00" timeLoss="29.87" rerouteNo="0" devices="tripinfo_f_3.3" vType="type1" speedFactor="1.18" vaporized=""/>
    <tripinfo id="f_8.1" depart="21.00" departLane="193714501#0_0" departPos="5.10" departSpeed="0.00" departDelay="13.00" arrival="82.00" arrivalLane="192748767#0_0" arrivalPos="97.24" arrivalSpeed="11.79" duration="61.00" routeLength="433.67" waitingTime="23.00" waitingCount="1" stopTime="0.00" timeLoss="39.66" rerouteNo="0" devices="tripinfo_f_8.1" vType="type1" speedFactor="0.94" vaporized=""/>
    <tripinfo id="f_0.6" depart="48.00" departLane="-406769344#2_0" departPos="5.10" departSpeed="0.00" departDelay="0.00" arrival="82.00" arrivalLane="192748775_0" arrivalPos="327.83" arrivalSpeed="27.02" duration="34.00" routeLength="578.61" waitingTime="0.00" waitingCount="0" stopTime="0.00" timeLoss="5.40" rerouteNo="0" devices="tripinfo_f_0.6" vType="type1" speedFactor="1.00" vaporized=""/>
    <tripinfo id="f_2.4" depart="48.00" departLane="193714501#0_0" departPos="5.10" departSpeed="0.00" departDelay="16.00" arrival="83.00" arrivalLane="422972291_1" arrivalPos="44.85" arrivalSpeed="21.99" duration="35.00" routeLength="394.76" waitingTime="0.00" waitingCount="0" stopTime="0.00" timeLoss="21.68" rerouteNo="0" devices="tripinfo_f_2.4" vType="type1" speedFactor="1.10" vaporized=""/>
    <tripinfo id="f_3.4" depart="51.00" departLane="193714501#0_0" departPos="5.10" departSpeed="0.00" departDelay="19.00" arrival="85.00" arrivalLane="422972291_1" arrivalPos="44.85" arrivalSpeed="23.31" duration="34.00" routeLength="394.76" waitingTime="0.00" waitingCount="0" stopTime="0.00" timeLoss="17.46" rerouteNo="0" devices="tripinfo_f_3.4" vType="type1" speedFactor="0.90" vaporized=""/>
    <tripinfo id="f_7.2" depart="30.00" departLane="193714501#0_0" departPos="5.10" departSpeed="0.00" departDelay="14.00" arrival="86.00" arrivalLane="-192748755#2_0" arrivalPos="103.11" arrivalSpeed="10.91" duration="56.00" routeLength="437.50" waitingTime="16.00" waitingCount="1" stopTime="0.00" timeLoss="30.89" rerouteNo="0" devices="tripinfo_f_7.2" vType="type1" speedFactor="0.87" vaporized=""/>
    <tripinfo id="f_8.2" depart="33.00" departLane="193714501#0_0" departPos="5.10" departSpeed="0.00" departDelay="17.00" arrival="86.00" arrivalLane="192748767#0_0" arrivalPos="97.24" arrivalSpeed="12.16" duration="53.00" routeLength="433.67" waitingTime="14.00" waitingCount="1" stopTime="0.00" timeLoss="31.60" rerouteNo="0" devices="tripinfo_f_8.2" vType="type1" speedFactor="0.92" vaporized=""/>
    <tripinfo id="f_2.5" depart="60.00" departLane="193714501#0_0" departPos="5.10" departSpeed="0.00" departDelay="20.00" arrival="86.00" arrivalLane="422972291_1" arrivalPos="44.85" arrivalSpeed="24.15" duration="26.00" routeLength="394.76" waitingTime="0.00" waitingCount="0" stopTime="0.00" timeLoss="9.89" rerouteNo="0" devices="tripinfo_f_2.5" vType="type1" speedFactor="0.90" vaporized=""/>
    <tripinfo id="f_3.5" depart="63.00" departLane="193714501#0_0" departPos="5.10" departSpeed="0.00" departDelay="23.00" arrival="88.00" arrivalLane="422972291_1" arrivalPos="44.85" arrivalSpeed="23.82" duration="25.00" routeLength="394.76" waitingTime="0.00" waitingCount="0" stopTime="0.00" timeLoss="7.95" rerouteNo="0" devices="tripinfo_f_3.5" vType="type1" speedFactor="0.88" vaporized=""/>
    <tripinfo id="f_7.3" depart="42.00" departLane="193714501#0_0" departPos="5.10" departSpeed="0.00" departDelay="18.00" arrival="89.00" arrivalLane="-192748755#2_0" arrivalPos="103.11" arrivalSpeed="13.14" duration="47.00" routeLength="437.50" waitingTime="6.00" waitingCount="1" stopTime="0.00" timeLoss="24.47" rerouteNo="0" devices="tripinfo_f_7.3" vType="type1" speedFactor="0.99" vaporized=""/>
    <tripinfo id="f_8.3" depart="45.00" departLane="193714501#0_0" departPos="5.10" departSpeed="0.00" departDelay="21.00" arrival="90.00" arrivalLane="192748767#0_0" arrivalPos="97.24" arrivalSpeed="13.29" duration="45.00" routeLength="433.67" waitingTime="4.00" waitingCount="1" stopTime="0.00" timeLoss="24.68" rerouteNo="0" devices="tripinfo_f_8.3" vType="type1" speedFactor="1.02" vaporized=""/>
    <tripinfo id="f_0.7" depart="56.00" departLane="-406769344#2_0" departPos="5.10" departSpeed="0.00" departDelay="0.00" arrival="91.00" arrivalLane="192748775_0" arrivalPos="327.83" arrivalSpeed="27.19" duration="35.00" routeLength="578.61" waitingTime="0.00" waitingCount="0" stopTime="0.00" timeLoss="5.50" rerouteNo="0" devices="tripinfo_f_0.7" vType="type1" speedFactor="0.99" vaporized=""/>
    <tripinfo id="f_7.4" depart="54.00" departLane="193714501#0_0" departPos="5.10" departSpeed="0.00" departDelay="22.00" arrival="92.00" arrivalLane="-192748755#2_0" arrivalPos="103.11" arrivalSpeed="13.38" duration="38.00" routeLength="437.50" waitingTime="0.00" waitingCount="0" stopTime="0.00" timeLoss="16.84" rerouteNo="0" devices="tripinfo_f_7.4" vType="type1" speedFactor="1.04" vaporized=""/>
    <tripinfo id="f_8.4" depart="57.00" departLane="193714501#0_0" departPos="5.10" departSpeed="0.00" departDelay="25.00" arrival="93.00" arrivalLane="192748767#0_0" arrivalPos="97.24" arrivalSpeed="14.42" duration="36.00" routeLength="433.67" waitingTime="0.00" waitingCount="0" stopTime="0.00" timeLoss="16.38" rerouteNo="0" devices="tripinfo_f_8.4" vType="type1" speedFactor="1.04" vaporized=""/>
    <tripinfo id="f_0.8" depart="64.00" departLane="-406769344#2_0" departPos="5.10" departSpeed="0.00" departDelay="0.00" arrival="99.00" arrivalLane="192748775_0" arrivalPos="327.83" arrivalSpeed="25.44" duration="35.00" routeLength="578.61" waitingTime="0.00" waitingCount="0" stopTime="0.00" timeLoss="4.67" rerouteNo="0" devices="tripinfo_f_0.8" vType="type1" speedFactor="0.94" vaporized=""/>
    <tripinfo id="f_6.6" depart="54.00" departLane="192748755#0_0" departPos="5.10" departSpeed="0.00" departDelay="6.00" arrival="100.00" arrivalLane="422972291_0" arrivalPos="44.85" arrivalSpeed="18.76" duration="46.00" routeLength="188.57" waitingTime="23.00" waitingCount="1" stopTime="0.00" timeLoss="36.00" rerouteNo="0" devices="tripinfo_f_6.6" vType="type1" speedFactor="1.08" vaporized=""/>
    <tripinfo id="f_5.6" depart="51.00" departLane="192748755#0_0" departPos="5.10" departSpeed="0.00" departDelay="3.00" arrival="101.00" arrivalLane="192748767#0_0" arrivalPos="97.24" arrivalSpeed="13.36" duration="50.00" routeLength="208.43" waitingTime="26.00" waitingCount="1" stopTime="0.00" timeLoss="33.31" rerouteNo="0" devices="tripinfo_f_5.6" vType="type1" speedFactor="0.97" vaporized=""/>
    <tripinfo id="f_6.7" depart="62.00" departLane="192748755#0_0" departPos="5.10" departSpeed="0.00" departDelay="6.00" arrival="103.00" arrivalLane="422972291_0" arrivalPos="44.85" arrivalSpeed="20.76" duration="41.00" routeLength="188.57" waitingTime="18.00" waitingCount="1" stopTime="0.00" timeLoss="30.52" rerouteNo="0" devices="tripinfo_f_6.7" vType="type1" speedFactor="1.02" vaporized=""/>
    <tripinfo id="f_5.7" depart="59.00" departLane="192748755#0_0" departPos="5.10" departSpeed="0.00" departDelay="3.00" arrival="105.00" arrivalLane="192748767#0_0" arrivalPos="97.24" arrivalSpeed="13.93" duration="46.00" routeLength="208.43" waitingTime="21.00" waitingCount="1" stopTime="0.00" timeLoss="30.43" rerouteNo="0" devices="tripinfo_f_5.7" vType="type1" speedFactor="1.04" vaporized=""/>
    <tripinfo id="f_6.8" depart="71.00" departLane="192748755#0_0" departPos="5.10" departSpeed="0.00" departDelay="7.00" arrival="108.00" arrivalLane="422972291_0" arrivalPos="44.85" arrivalSpeed="19.62" duration="37.00" routeLength="188.57" waitingTime="12.00" waitingCount="1" stopTime="0.00" timeLoss="26.26" rerouteNo="0" devices="tripinfo_f_6.8" vType="type1" speedFactor="1.01" vaporized=""/>
    <tripinfo id="f_5.8" depart="68.00" departLane="192748755#0_0" departPos="5.10" departSpeed="0.00" departDelay="4.00" arrival="110.00" arrivalLane="192748767#0_0" arrivalPos="97.24" arrivalSpeed="13.53" duration="42.00" routeLength="208.43" waitingTime="14.00" waitingCount="1" stopTime="0.00" timeLoss="25.53" rerouteNo="0" devices="tripinfo_f_5.8" vType="type1" speedFactor="0.98" vaporized=""/>
    <tripinfo id="f_6.9" depart="79.00" departLane="192748755#0_0" departPos="5.10" departSpeed="0.00" departDelay="7.00" arrival="112.00" arrivalLane="422972291_0" arrivalPos="44.85" arrivalSpeed="21.07" duration="33.00" routeLength="188.57" waitingTime="8.00" waitingCount="1" stopTime="0.00" timeLoss="22.47" rerouteNo="0" devices="tripinfo_f_6.9" vType="type1" speedFactor="1.04" vaporized=""/>
    <tripinfo id="f_4.5" depart="42.00" departLane="192748755#0_0" departPos="5.10" departSpeed="0.00" departDelay="2.00" arrival="113.00" arrivalLane="192748775_1" arrivalPos="327.83" arrivalSpeed="23.45" duration="71.00" routeLength="475.24" waitingTime="34.00" waitingCount="1" stopTime="0.00" timeLoss="44.09" rerouteNo="0" devices="tripinfo_f_4.5" vType="type1" speedFactor="0.85" vaporized=""/>
    <tripinfo id="f_5.9" depart="76.00" departLane="192748755#0_0" departPos="5.10" departSpeed="0.00" departDelay="4.00" arrival="114.00" arrivalLane="192748767#0_0" arrivalPos="97.24" arrivalSpeed="13.61" duration="38.00" routeLength="208.43" waitingTime="10.00" waitingCount="1" stopTime="0.00" timeLoss="21.47" rerouteNo="0" devices="tripinfo_f_5.9" vType="type1" speedFactor="1.00" vaporized=""/>
    <tripinfo id="f_4.6" depart="50.00" departLane="192748755#0_0" departPos="5.10" departSpeed="0.00" departDelay="2.00" arrival="115.00" arrivalLane="192748775_1" arrivalPos="327.83" arrivalSpeed="26.46" duration="65.00" routeLength="475.24" waitingTime="28.00" waitingCount="1" stopTime="0.00" timeLoss="41.98" rerouteNo="0" devices="tripinfo_f_4.6" vType="type1" speedFactor="1.02" vaporized=""/>
    <tripinfo id="f_4.7" depart="57.00" departLane="192748755#0_0" departPos="5.10" departSpeed="0.00" departDelay="1.00" arrival="116.00" arrivalLane="192748775_1" arrivalPos="327.83" arrivalSpeed="24.51" duration="59.00" routeLength="475.24" waitingTime="22.00" waitingCount="1" stopTime="0.00" timeLoss="33.95" rerouteNo="0" devices="tripinfo_f_4.7" vType="type1" speedFactor="0.91" vaporized=""/>
    <tripinfo id="f_6.10" depart="87.00" departLane="192748755#0_0" departPos="5.10" departSpeed="0.00" departDelay="7.00" arrival="116.00" arrivalLane="422972291_0" arrivalPos="44.85" arrivalSpeed="21.50" duration="29.00" routeLength="188.57" waitingTime="4.00" waitingCount="1" stopTime="0.00" timeLoss="18.28" rerouteNo="0" devices="tripinfo_f_6.10" vType="type1" speedFactor="1.01" vaporized=""/>
    <tripinfo id="f_5.10" depart="84.00" departLane="192748755#0_0" departPos="5.10" departSpeed="0.00" departDelay="4.00" arrival="117.00" arrivalLane="192748767#0_0" arrivalPos="97.24" arrivalSpeed="13.59" duration="33.00" routeLength="208.43" waitingTime="4.00" waitingCount="1" stopTime="0.00" timeLoss="17.95" rerouteNo="0" devices="tripinfo_f_5.10" vType="type1" speedFactor="1.06" vaporized=""/>
    <tripinfo id="f_1.4" depart="35.00" departLane="-406769344#2_0" departPos="5.10" departSpeed="0.00" departDelay="3.00" arrival="118.00" arrivalLane="-192748755#2_1" arrivalPos="103.11" arrivalSpeed="15.60" duration="83.00" routeLength="363.38" waitingTime="42.00" waitingCount="1" stopTime="0.00" timeLoss="60.44" rerouteNo="0" devices="tripinfo_f_1.4" vType="type1" speedFactor="1.18" vaporized=""/>
    <tripinfo id="f_4.8" depart="65.00" departLane="192748755#0_0" departPos="5.10" departSpeed="0.00" departDelay="1.00" arrival="118.00" arrivalLane="192748775_1" arrivalPos="327.83" arrivalSpeed="27.98" duration="53.00" routeLength="475.24" waitingTime="16.00" waitingCount="1" stopTime="0.00" timeLoss="30.10" rerouteNo="0" devices="tripinfo_f_4.8" vType="type1" speedFactor="1.03" vaporized=""/>
    <tripinfo id="f_4.9" depart="74.00" departLane="192748755#0_0" departPos="5.10" departSpeed="0.00" departDelay="2.00" arrival="119.00" arrivalLane="192748775_1" arrivalPos="327.83" arrivalSpeed="26.02" duration="45.00" routeLength="475.24" waitingTime="10.00" waitingCount="1" stopTime="0.00" timeLoss="21.74" rerouteNo="0" devices="tripinfo_f_4.9" vType="type1" speedFactor="0.98" vaporized=""/>
    <tripinfo id="f_1.5" depart="43.00" departLane="-406769344#2_0" departPos="5.10" departSpeed="0.00" departDelay="3.00" arrival="121.00" arrivalLane="-192748755#2_1" arrivalPos="103.11" arrivalSpeed="13.08" duration="78.00" routeLength="363.38" waitingTime="41.00" waitingCount="1" stopTime="0.00" timeLoss="51.58" rerouteNo="0" devices="tripinfo_f_1.5" vType="type1" speedFactor="1.00" vaporized=""/>
    <tripinfo id="f_6.11" depart="95.00" departLane="192748755#0_0" departPos="5.10" departSpeed="0.00" departDelay="7.00" arrival="121.00" arrivalLane="422972291_0" arrivalPos="44.85" arrivalSpeed="20.07" duration="26.00" routeLength="188.57" waitingTime="0.00" waitingCount="0" stopTime="0.00" timeLoss="15.82" rerouteNo="0" devices="tripinfo_f_6.11" vType="type1" speedFactor="1.07" vaporized=""/>
    <tripinfo id="f_1.6" depart="51.00" departLane="-406769344#2_0" departPos="5.10" departSpeed="0.00" departDelay="3.00" arrival="123.00" arrivalLane="-192748755#2_1" arrivalPos="103.11" arrivalSpeed="13.67" duration="72.00" routeLength="363.38" waitingTime="35.00" waitingCount="1" stopTime="0.00" timeLoss="45.42" rerouteNo="0" devices="tripinfo_f_1.6" vType="type1" speedFactor="1.00" vaporized=""/>
    <tripinfo id="f_5.11" depart="92.00" departLane="192748755#0_0" departPos="5.10" departSpeed="0.00" departDelay="4.00" arrival="123.00" arrivalLane="192748767#0_0" arrivalPos="97.24" arrivalSpeed="11.75" duration="31.00" routeLength="208.43" waitingTime="2.00" waitingCount="1" stopTime="0.00" timeLoss="13.02" rerouteNo="0" devices="tripinfo_f_5.11" vType="type1" speedFactor="0.89" vaporized=""/>