<?xml version="1.0" encoding="UTF-8"?>

<!-- generated on 2023-09-26 19:25:22 by Eclipse SUMO sumo Version 1.16.0
<configuration xmlns:xsi="http://www.w3.org/2001/XMLSchema-instance" xsi:noNamespaceSchemaLocation="http://sumo.dlr.de/xsd/sumoConfiguration.xsd">

    <input>
        <net-file value="./Simulation/osm.net.xml"/>
        <route-files value="./Simulation/demand.rou.xml"/>
        <additional-files value="./Simulation/detectors.xml"/>
    </input>

    <output>
        <tripinfo-output value="tripinfo.xml"/>
    </output>

    <processing>
        <waiting-time-memory value="2000"/>
    </processing>

    <report>
        <no-warnings value="true"/>
        <duration-log.disable value="true"/>
        <no-step-log value="true"/>
    </report>

    <traci_server>
        <remote-port value="50422"/>
    </traci_server>

    <gui_only>
        <gui-settings-file value="./Simulation/viewsettings.xml"/>
        <quit-on-end value="true"/>
        <start value="false"/>
    </gui_only>

</configuration>
-->

<tripinfos xmlns:xsi="http://www.w3.org/2001/XMLSchema-instance" xsi:noNamespaceSchemaLocation="http://sumo.dlr.de/xsd/tripinfo_file.xsd">
    <tripinfo id="f_2.0" depart="0.00" departLane="193714501#0_0" departPos="5.10" departSpeed="0.00" departDelay="0.00" arrival="21.00" arrivalLane="422972291_0" arrivalPos="44.85" arrivalSpeed="27.39" duration="21.00" routeLength="394.76" waitingTime="0.00" waitingCount="0" stopTime="0.00" timeLoss="6.66" rerouteNo="0" devices="tripinfo_f_2.0" vType="type1" speedFactor="1.01" vaporized=""/>
    <tripinfo id="f_3.0" depart="3.00" departLane="193714501#0_0" departPos="5.10" departSpeed="0.00" departDelay="3.00" arrival="24.00" arrivalLane="422972291_0" arrivalPos="44.85" arrivalSpeed="29.20" duration="21.00" routeLength="394.76" waitingTime="0.00" waitingCount="0" stopTime="0.00" timeLoss="7.46" rerouteNo="0" devices="tripinfo_f_3.0" vType="type1" speedFactor="1.08" vaporized=""/>
    <tripinfo id="f_0.0" depart="0.00" departLane="-406769344#2_0" departPos="5.10" departSpeed="0.00" departDelay="0.00" arrival="33.00" arrivalLane="192748775_0" arrivalPos="327.83" arrivalSpeed="28.98" duration="33.00" routeLength="578.61" waitingTime="0.00" waitingCount="0" stopTime="0.00" timeLoss="5.37" rerouteNo="0" devices="tripinfo_f_0.0" vType="type1" speedFactor="1.06" vaporized=""/>
    <tripinfo id="f_7.0" depart="6.00" departLane="193714501#0_0" departPos="5.10" departSpeed="0.00" departDelay="6.00" arrival="38.00" arrivalLane="-192748755#2_0" arrivalPos="103.11" arrivalSpeed="11.76" duration="32.00" routeLength="437.50" waitingTime="0.00" waitingCount="0" stopTime="0.00" timeLoss="7.82" rerouteNo="0" devices="tripinfo_f_7.0" vType="type1" speedFactor="0.89" vaporized=""/>
    <tripinfo id="f_6.0" depart="6.00" departLane="192748755#0_0" departPos="5.10" departSpeed="0.00" departDelay="6.00" arrival="41.00" arrivalLane="422972291_0" arrivalPos="44.85" arrivalSpeed="19.99" duration="35.00" routeLength="188.57" waitingTime="10.00" waitingCount="1" stopTime="0.00" timeLoss="24.59" rerouteNo="0" devices="tripinfo_f_6.0" vType="type1" speedFactor="1.05" vaporized=""/>
    <tripinfo id="f_5.0" depart="3.00" departLane="192748755#0_0" departPos="5.10" departSpeed="0.00" departDelay="3.00" arrival="43.00" arrivalLane="192748767#0_0" arrivalPos="97.24" arrivalSpeed="11.26" duration="40.00" routeLength="208.43" waitingTime="12.00" waitingCount="1" stopTime="0.00" timeLoss="20.60" rerouteNo="0" devices="tripinfo_f_5.0" vType="type1" speedFactor="0.83" vaporized=""/>
    <tripinfo id="f_1.0" depart="3.00" departLane="-406769344#2_0" departPos="5.10" departSpeed="0.00" departDelay="3.00" arrival="45.00" arrivalLane="-192748755#2_1" arrivalPos="103.11" arrivalSpeed="11.98" duration="42.00" routeLength="363.38" waitingTime="3.00" waitingCount="1" stopTime="0.00" timeLoss="13.63" rerouteNo="0" devices="tripinfo_f_1.0" vType="type1" speedFactor="0.94" vaporized=""/>
    <tripinfo id="f_6.1" depart="16.00" departLane="192748755#0_0" departPos="5.10" departSpeed="0.00" departDelay="5.71" arrival="45.00" arrivalLane="422972291_0" arrivalPos="44.85" arrivalSpeed="21.35" duration="29.00" routeLength="188.57" waitingTime="4.00" waitingCount="1" stopTime="0.00" timeLoss="17.00" rerouteNo="0" devices="tripinfo_f_6.1" vType="type1" speedFactor="0.93" vaporized=""/>
    <tripinfo id="f_5.1" depart="13.00" departLane="192748755#0_0" departPos="5.10" departSpeed="0.00" departDelay="2.71" arrival="46.00" arrivalLane="192748767#0_0" arrivalPos="97.24" arrivalSpeed="13.25" duration="33.00" routeLength="208.43" waitingTime="5.00" waitingCount="1" stopTime="0.00" timeLoss="16.38" rerouteNo="0" devices="tripinfo_f_5.1" vType="type1" speedFactor="0.99" vaporized=""/>
    <tripinfo id="f_1.1" depart="14.00" departLane="-406769344#2_0" departPos="5.10" departSpeed="0.00" departDelay="3.71" arrival="47.00" arrivalLane="-192748755#2_1" arrivalPos="103.11" arrivalSpeed="14.73" duration="33.00" routeLength="363.38" waitingTime="0.00" waitingCount="0" stopTime="0.00" timeLoss="8.09" rerouteNo="0" devices="tripinfo_f_1.1" vType="type1" speedFactor="1.09" vaporized=""/>
    <tripinfo id="f_0.1" depart="11.00" departLane="-406769344#2_0" departPos="5.10" departSpeed="0.00" departDelay="0.71" arrival="50.00" arrivalLane="192748775_0" arrivalPos="327.83" arrivalSpeed="23.78" duration="39.00" routeLength="578.61" waitingTime="0.00" waitingCount="0" stopTime="0.00" timeLoss="5.09" rerouteNo="0" devices="tripinfo_f_0.1" vType="type1" speedFactor="0.86" vaporized=""/>
    <tripinfo id="f_6.2" depart="26.00" departLane="192748755#0_0" departPos="5.10" departSpeed="0.00" departDelay="5.43" arrival="50.00" arrivalLane="422972291_0" arrivalPos="44.85" arrivalSpeed="20.47" duration="24.00" routeLength="188.57" waitingTime="0.00" waitingCount="0" stopTime="0.00" timeLoss="10.20" rerouteNo="0" devices="tripinfo_f_6.2" vType="type1" speedFactor="0.83" vaporized=""/>
    <tripinfo id="f_1.2" depart="24.00" departLane="-406769344#2_0" departPos="5.10" departSpeed="0.00" departDelay="3.43" arrival="51.00" arrivalLane="-192748755#2_1" arrivalPos="103.11" arrivalSpeed="15.23" duration="27.00" routeLength="363.38" waitingTime="0.00" waitingCount="0" stopTime="0.00" timeLoss="4.18" rerouteNo="0" devices="tripinfo_f_1.2" vType="type1" speedFactor="1.16" vaporized=""/>
    <tripinfo id="f_5.2" depart="23.00" departLane="192748755#0_0" departPos="5.10" departSpeed="0.00" departDelay="2.43" arrival="51.00" arrivalLane="192748767#0_0" arrivalPos="97.24" arrivalSpeed="11.49" duration="28.00" routeLength="208.43" waitingTime="0.00" waitingCount="0" stopTime="0.00" timeLoss="10.30" rerouteNo="0" devices="tripinfo_f_5.2" vType="type1" speedFactor="0.89" vaporized=""/>
    <tripinfo id="f_6.3" depart="36.00" departLane="192748755#0_0" departPos="5.10" departSpeed="0.00" departDelay="5.14" arrival="53.00" arrivalLane="422972291_0" arrivalPos="44.85" arrivalSpeed="21.77" duration="17.00" routeLength="188.57" waitingTime="0.00" waitingCount="0" stopTime="0.00" timeLoss="7.65" rerouteNo="0" devices="tripinfo_f_6.3" vType="type1" speedFactor="1.17" vaporized=""/>
    <tripinfo id="f_5.3" depart="33.00" departLane="192748755#0_0" departPos="5.10" departSpeed="0.00" departDelay="2.14" arrival="54.00" arrivalLane="192748767#0_0" arrivalPos="97.24" arrivalSpeed="13.01" duration="21.00" routeLength="208.43" waitingTime="0.00" waitingCount="0" stopTime="0.00" timeLoss="5.35" rerouteNo="0" devices="tripinfo_f_5.3" vType="type1" speedFactor="1.01" vaporized=""/>
    <tripinfo id="f_0.2" depart="21.00" departLane="-406769344#2_0" departPos="5.10" departSpeed="0.00" departDelay="0.43" arrival="57.00" arrivalLane="192748775_0" arrivalPos="327.83" arrivalSpeed="25.81" duration="36.00" routeLength="578.61" waitingTime="0.00" waitingCount="0" stopTime="0.00" timeLoss="4.75" rerouteNo="0" devices="tripinfo_f_0.2" vType="type1" speedFactor="0.94" vaporized=""/>
    <tripinfo id="f_1.3" depart="34.00" departLane="-406769344#2_0" departPos="5.10" departSpeed="0.00" departDelay="3.14" arrival="62.00" arrivalLane="-192748755#2_1" arrivalPos="103.11" arrivalSpeed="15.28" duration="28.00" routeLength="363.38" waitingTime="0.00" waitingCount="0" stopTime="0.00" timeLoss="4.34" rerouteNo="0" devices="tripinfo_f_1.3" vType="type1" speedFactor="1.13" vaporized=""/>
    <tripinfo id="f_6.4" depart="48.00" departLane="192748755#0_0" departPos="5.10" departSpeed="0.00" departDelay="6.86" arrival="63.00" arrivalLane="422972291_0" arrivalPos="44.85" arrivalSpeed="22.46" duration="15.00" routeLength="188.57" waitingTime="0.00" waitingCount="0" stopTime="0.00" timeLoss="5.22" rerouteNo="0" devices="tripinfo_f_6.4" vType="type1" speedFactor="1.09" vaporized=""/>
    <tripinfo id="f_5.4" depart="45.00" departLane="192748755#0_0" departPos="5.10" departSpeed="0.00" departDelay="3.86" arrival="65.00" arrivalLane="192748767#0_0" arrivalPos="97.24" arrivalSpeed="13.19" duration="20.00" routeLength="208.43" waitingTime="0.00" waitingCount="0" stopTime="0.00" timeLoss="3.68" rerouteNo="0" devices="tripinfo_f_5.4" vType="type1" speedFactor="0.96" vaporized=""/>
    <tripinfo id="f_0.3" depart="31.00" departLane="-406769344#2_0" departPos="5.10" departSpeed="0.00" departDelay="0.14" arrival="67.00" arrivalLane="192748775_0" arrivalPos="327.83" arrivalSpeed="25.87" duration="36.00" routeLength="578.61" waitingTime="0.00" waitingCount="0" stopTime="0.00" timeLoss="5.42" rerouteNo="0" devices="tripinfo_f_0.3" vType="type1" speedFactor="0.95" vaporized=""/>
    <tripinfo id="f_6.5" depart="56.00" departLane="192748755#0_0" departPos="5.10" departSpeed="0.00" departDelay="4.57" arrival="73.00" arrivalLane="422972291_0" arrivalPos="44.85" arrivalSpeed="18.91" duration="17.00" routeLength="188.57" waitingTime="0.00" waitingCount="0" stopTime="0.00" timeLoss="7.83" rerouteNo="0" devices="tripinfo_f_6.5" vType="type1" speedFactor="1.17" vaporized=""/>
    <tripinfo id="f_5.5" depart="53.00" departLane="192748755#0_0" departPos="5.10" departSpeed="0.00" departDelay="1.57" arrival="75.00" arrivalLane="192748767#0_0" arrivalPos="97.24" arrivalSpeed="11.63" duration="22.00" routeLength="208.43" waitingTime="0.00" waitingCount="0" stopTime="0.00" timeLoss="3.91" rerouteNo="0" devices="tripinfo_f_5.5" vType="type1" speedFactor="0.85" vaporized=""/>
    <tripinfo id="f_4.0" depart="0.00" departLane="192748755#0_0" departPos="5.10" departSpeed="0.00" departDelay="0.00" arrival="80.00" arrivalLane="192748775_1" arrivalPos="327.83" arrivalSpeed="28.12" duration="80.00" routeLength="475.24" waitingTime="46.00" waitingCount="1" stopTime="0.00" timeLoss="57.81" rerouteNo="0" devices="tripinfo_f_4.0" vType="type1" speedFactor="1.03" vaporized=""/>
    <tripinfo id="f_4.1" depart="11.00" departLane="192748755#0_0" departPos="5.10" departSpeed="0.00" departDelay="0.71" arrival="82.00" arrivalLane="192748775_1" arrivalPos="327.83" arrivalSpeed="30.84" duration="71.00" routeLength="475.24" waitingTime="36.00" waitingCount="1" stopTime="0.00" timeLoss="50.15" rerouteNo="0" devices="tripinfo_f_4.1" vType="type1" speedFactor="1.12" vaporized=""/>
    <tripinfo id="f_6.6" depart="67.00" departLane="192748755#0_0" departPos="5.10" departSpeed="0.00" departDelay="5.28" arrival="83.00" arrivalLane="422972291_0" arrivalPos="44.85" arrivalSpeed="22.15" duration="16.00" routeLength="188.57" waitingTime="0.00" waitingCount="0" stopTime="0.00" timeLoss="5.57" rerouteNo="0" devices="tripinfo_f_6.6" vType="type1" speedFactor="1.08" vaporized=""/>
    <tripinfo id="f_4.2" depart="21.00" departLane="192748755#0_0" departPos="5.10" departSpeed="0.00" departDelay="0.43" arrival="85.00" arrivalLane="192748775_1" arrivalPos="327.83" arrivalSpeed="26.64" duration="64.00" routeLength="475.24" waitingTime="27.00" waitingCount="1" stopTime="0.00" timeLoss="40.13" rerouteNo="0" devices="tripinfo_f_4.2" vType="type1" speedFactor="0.97" vaporized=""/>
    <tripinfo id="f_5.6" depart="64.00" departLane="192748755#0_0" departPos="5.10" departSpeed="0.00" departDelay="2.28" arrival="85.00" arrivalLane="192748767#0_0" arrivalPos="97.24" arrivalSpeed="12.96" duration="21.00" routeLength="208.43" waitingTime="0.00" waitingCount="0" stopTime="0.00" timeLoss="4.27" rerouteNo="0" devices="tripinfo_f_5.6" vType="type1" speedFactor="0.97" vaporized=""/>
    <tripinfo id="f_4.3" depart="31.00" departLane="192748755#0_0" departPos="5.10" departSpeed="0.00" departDelay="0.14" arrival="86.00" arrivalLane="192748775_1" arrivalPos="327.83" arrivalSpeed="28.73" duration="55.00" routeLength="475.24" waitingTime="19.00" waitingCount="1" stopTime="0.00" timeLoss="35.12" rerouteNo="0" devices="tripinfo_f_4.3" vType="type1" speedFactor="1.15" vaporized=""/>
    <tripinfo id="f_4.4" depart="42.00" departLane="192748755#0_0" departPos="5.10" departSpeed="0.00" departDelay="0.86" arrival="89.00" arrivalLane="192748775_1" arrivalPos="327.83" arrivalSpeed="28.05" duration="47.00" routeLength="475.24" waitingTime="9.00" waitingCount="1" stopTime="0.00" timeLoss="24.22" rerouteNo="0" devices="tripinfo_f_4.4" vType="type1" speedFactor="1.03" vaporized=""/>
    <tripinfo id="f_4.5" depart="52.00" departLane="192748755#0_0" departPos="5.10" departSpeed="0.00" departDelay="0.57" arrival="93.00" arrivalLane="192748775_1" arrivalPos="327.83" arrivalSpeed="23.11" duration="41.00" routeLength="475.24" waitingTime="2.00" waitingCount="1" stopTime="0.00" timeLoss="14.48" rerouteNo="0" devices="tripinfo_f_4.5" vType="type1" speedFactor="0.85" vaporized=""/>
    <tripinfo id="f_4.6" depart="62.00" departLane="192748755#0_0" departPos="5.10" departSpeed="0.00" departDelay="0.28" arrival="95.00" arrivalLane="192748775_1" arrivalPos="327.83" arrivalSpeed="27.13" duration="33.00" routeLength="475.24" waitingTime="0.00" waitingCount="0" stopTime="0.00" timeLoss="10.33" rerouteNo="0" devices="tripinfo_f_4.6" vType="type1" speedFactor="1.02" vaporized=""/>
    <tripinfo id="f_2.1" depart="12.00" departLane="193714501#0_0" departPos="5.10" departSpeed="0.00" departDelay="1.71" arrival="99.00" arrivalLane="422972291_0" arrivalPos="44.85" arrivalSpeed="19.58" duration="87.00" routeLength="394.76" waitingTime="53.00" waitingCount="1" stopTime="0.00" timeLoss="72.67" rerouteNo="0" devices="tripinfo_f_2.1" vType="type1" speedFactor="1.03" vaporized=""/>
    <tripinfo id="f_3.1" depart="15.00" departLane="193714501#0_0" departPos="5.10" departSpeed="0.00" departDelay="4.71" arrival="101.00" arrivalLane="422972291_0" arrivalPos="44.85" arrivalSpeed="17.96" duration="86.00" routeLength="394.76" waitingTime="54.00" waitingCount="1" stopTime="0.00" timeLoss="72.18" rerouteNo="0" devices="tripinfo_f_3.1" vType="type1" speedFactor="1.05" vaporized=""/>
    <tripinfo id="f_2.2" depart="24.00" departLane="193714501#0_0" departPos="5.10" departSpeed="0.00" departDelay="3.43" arrival="101.00" arrivalLane="422972291_1" arrivalPos="44.85" arrivalSpeed="18.90" duration="77.00" routeLength="394.76" waitingTime="45.00" waitingCount="1" stopTime="0.00" timeLoss="62.69" rerouteNo="0" devices="tripinfo_f_2.2" vType="type1" speedFactor="1.02" vaporized=""/>
    <tripinfo id="f_8.0" depart="9.00" departLane="193714501#0_0" departPos="5.10" departSpeed="0.00" departDelay="9.00" arrival="103.00" arrivalLane="192748767#0_0" arrivalPos="97.24" arrivalSpeed="12.96" duration="94.00" routeLength="433.67" waitingTime="59.00" waitingCount="1" stopTime="0.00" timeLoss="72.31" rerouteNo="0" devices="tripinfo_f_8.0" vType="type1" speedFactor="0.94" vaporized=""/>
    <tripinfo id="f_3.2" depart="27.00" departLane="193714501#0_0" departPos="5.10" departSpeed="0.00" departDelay="6.43" arrival="103.00" arrivalLane="422972291_1" arrivalPos="44.85" arrivalSpeed="20.22" duration="76.00" routeLength="394.76" waitingTime="42.00" waitingCount="1" stopTime="0.00" timeLoss="61.41" rerouteNo="0" devices="tripinfo_f_3.2" vType="type1" speedFactor="1.01" vaporized=""/>
    <tripinfo id="f_2.3" depart="36.00" departLane="193714501#0_0" departPos="5.10" departSpeed="0.00" departDelay="5.14" arrival="104.00" arrivalLane="422972291_1" arrivalPos="44.85" arrivalSpeed="19.94" duration="68.00" routeLength="394.76" waitingTime="33.00" waitingCount="1" stopTime="0.00" timeLoss="52.66" rerouteNo="0" devices="tripinfo_f_2.3" vType="type1" speedFactor="0.93" vaporized=""/>
    <tripinfo id="f_4.7" depart="73.00" departLane="192748755#0_0" departPos="5.10" departSpeed="0.00" departDelay="1.00" arrival="105.00" arrivalLane="192748775_1" arrivalPos="327.83" arrivalSpeed="25.20" duration="32.00" routeLength="475.24" waitingTime="0.00" waitingCount="0" stopTime="0.00" timeLoss="6.42" rerouteNo="0" devices="tripinfo_f_4.7" vType="type1" speedFactor="0.91" vaporized=""/>
    <tripinfo id="f_3.3" depart="39.00" departLane="193714501#0_0" departPos="5.10" departSpeed="0.00" departDelay="8.14" arrival="106.00" arrivalLane="422972291_1" arrivalPos="44.85" arrivalSpeed="23.02" duration="67.00" routeLength="394.76" waitingTime="32.00" waitingCount="1" stopTime="0.00" timeLoss="54.49" rerouteNo="0" devices="tripinfo_f_3.3" vType="type1" speedFactor="1.18" vaporized=""/>
    <tripinfo id="f_2.4" depart="48.00" departLane="193714501#0_0" departPos="5.10" departSpeed="0.00" departDelay="6.86" arrival="108.00" arrivalLane="422972291_1" arrivalPos="44.85" arrivalSpeed="19.22" duration="60.00" routeLength="394.76" waitingTime="26.00" waitingCount="1" stopTime="0.00" timeLoss="47.06" rerouteNo="0" devices="tripinfo_f_2.4" vType="type1" speedFactor="1.10" vaporized=""/>
    <tripinfo id="f_7.1" depart="18.00" departLane="193714501#0_0" departPos="5.10" departSpeed="0.00" departDelay="7.71" arrival="109.00" arrivalLane="-192748755#2_0" arrivalPos="103.11" arrivalSpeed="11.08" duration="91.00" routeLength="437.50" waitingTime="52.00" waitingCount="1" stopTime="0.00" timeLoss="65.88" rerouteNo="0" devices="tripinfo_f_7.1" vType="type1" speedFactor="0.88" vaporized=""/>
    <tripinfo id="f_8.1" depart="21.00" departLane="193714501#0_0" departPos="5.10" departSpeed="0.00" departDelay="10.71" arrival="109.00" arrivalLane="192748767#0_0" arrivalPos="97.24" arrivalSpeed="12.01" duration="88.00" routeLength="433.67" waitingTime="50.00" waitingCount="1" stopTime="0.00" timeLoss="66.49" rerouteNo="0" devices="tripinfo_f_8.1" vType="type1" speedFactor="0.94" vaporized=""/>
    <tripinfo id="f_0.4" depart="42.00" departLane="-406769344#2_0" departPos="5.10" departSpeed="0.00" departDelay="0.86" arrival="110.00" arrivalLane="192748775_0" arrivalPos="327.83" arrivalSpeed="26.50" duration="68.00" routeLength="578.61" waitingTime="26.00" waitingCount="1" stopTime="0.00" timeLoss="37.80" rerouteNo="0" devices="tripinfo_f_0.4" vType="type1" speedFactor="0.97" vaporized=""/>
    <tripinfo id="f_3.4" depart="51.00" departLane="193714501#0_0" departPos="5.10" departSpeed="0.00" departDelay="9.86" arrival="110.00" arrivalLane="422972291_1" arrivalPos="44.85" arrivalSpeed="21.72" duration="59.00" routeLength="394.76" waitingTime="23.00" waitingCount="1" stopTime="0.00" timeLoss="42.67" rerouteNo="0" devices="tripinfo_f_3.4" vType="type1" speedFactor="0.90" vaporized=""/>
    <tripinfo id="f_2.5" depart="60.00" departLane="193714501#0_0" departPos="5.10" departSpeed="0.00" departDelay="8.57" arrival="111.00" arrivalLane="422972291_1" arrivalPos="44.85" arrivalSpeed="21.22" duration="51.00" routeLength="394.76" waitingTime="14.00" waitingCount="1" stopTime="0.00" timeLoss="35.13" rerouteNo="0" devices="tripinfo_f_2.5" vType="type1" speedFactor="0.90" vaporized=""/>
    <tripinfo id="f_0.5" depart="52.00" departLane="-406769344#2_0" departPos="5.10" departSpeed="0.00" departDelay="0.57" arrival="112.00" arrivalLane="192748775_0" arrivalPos="327.83" arrivalSpeed="29.57" duration="60.00" routeLength="578.61" waitingTime="20.00" waitingCount="1" stopTime="0.00" timeLoss="32.69" rerouteNo="0" devices="tripinfo_f_0.5" vType="type1" speedFactor="1.09" vaporized=""/>
    <tripinfo id="f_7.2" depart="30.00" departLane="193714501#0_0" departPos="5.10" departSpeed="0.00" departDelay="9.43" arrival="113.00" arrivalLane="-192748755#2_0" arrivalPos="103.11" arrivalSpeed="10.91" duration="83.00" routeLength="437.50" waitingTime="41.00" waitingCount="1" stopTime="0.00" timeLoss="57.88" rerouteNo="0" devices="tripinfo_f_7.2" vType="type1" speedFactor="0.87" vaporized=""/>
    <tripinfo id="f_8.2" depart="33.00" departLane="193714501#0_0" departPos="5.10" departSpeed="0.00" departDelay="12.43" arrival="113.00" arrivalLane="192748767#0_0" arrivalPos="97.24" arrivalSpeed="12.02" duration="80.00" routeLength="433.67" waitingTime="40.00" waitingCount="1" stopTime="0.00" timeLoss="58.16" rerouteNo="0" devices="tripinfo_f_8.2" vType="type1" speedFactor="0.92" vaporized=""/>
    <tripinfo id="f_3.5" depart="63.00" departLane="193714501#0_0" departPos="5.10" departSpeed="0.00" departDelay="11.57" arrival="113.00" arrivalLane="422972291_1" arrivalPos="44.85" arrivalSpeed="23.17" duration="50.00" routeLength="394.76" waitingTime="13.00" waitingCount="1" stopTime="0.00" timeLoss="33.16" rerouteNo="0" devices="tripinfo_f_3.5" vType="type1" speedFactor="0.88" vaporized=""/>
    <tripinfo id="f_0.6" depart="62.00" departLane="-406769344#2_0" departPos="5.10" departSpeed="0.00" departDelay="0.28" arrival="113.00" arrivalLane="192748775_0" arrivalPos="327.83" arrivalSpeed="27.44" duration="51.00" routeLength="578.61" waitingTime="9.00" waitingCount="1" stopTime="0.00" timeLoss="22.19" rerouteNo="0" devices="tripinfo_f_0.6" vType="type1" speedFactor="1.00" vaporized=""/>
    <tripinfo id="f_7.3" depart="42.00" departLane="193714501#0_0" departPos="5.10" departSpeed="0.00" departDelay="11.14" arrival="115.00" arrivalLane="-192748755#2_0" arrivalPos="103.11" arrivalSpeed="12.67" duration="73.00" routeLength="437.50" waitingTime="32.00" waitingCount="1" stopTime="0.00" timeLoss="51.25" rerouteNo="0" devices="tripinfo_f_7.3" vType="type1" speedFactor="0.99" vaporized=""/>
    <tripinfo id="f_2.6" depart="72.00" departLane="193714501#0_0" departPos="5.10" departSpeed="0.00" departDelay="10.28" arrival="115.00" arrivalLane="422972291_1" arrivalPos="44.85" arrivalSpeed="23.15" duration="43.00" routeLength="394.76" waitingTime="7.00" waitingCount="1" stopTime="0.00" timeLoss="26.29" rerouteNo="0" devices="tripinfo_f_2.6" vType="type1" speedFactor="0.90" vaporized=""/>
    <tripinfo id="f_0.7" depart="73.00" departLane="-406769344#2_0" departPos="5.10" departSpeed="0.00" departDelay="1.00" arrival="115.00" arrivalLane="192748775_0" arrivalPos="327.83" arrivalSpeed="26.96" duration="42.00" routeLength="578.61" waitingTime="0.00" waitingCount="0" stopTime="0.00" timeLoss="12.37" rerouteNo="0" devices="tripinfo_f_0.7" vType="type1" speedFactor="0.99" vaporized=""/>
    <tripinfo id="f_8.3" depart="45.00" departLane="193714501#0_0" departPos="5.10" departSpeed="0.00" departDelay="14.14" arrival="116.00" arrivalLane="192748767#0_0" arrivalPos="97.24" arrivalSpeed="12.97" duration="71.00" routeLength="433.67" waitingTime="31.00" waitingCount="1" stopTime="0.00" timeLoss="51.35" rerouteNo="0" devices="tripinfo_f_8.3" vType="type1" speedFactor="1.02" vaporized=""/>
    <tripinfo id="f_3.6" depart="75.00" departLane="193714501#0_0" departPos="5.10" departSpeed="0.00" departDelay="13.28" arrival="116.00" arrivalLane="422972291_1" arrivalPos="44.85" arrivalSpeed="23.02" duration="41.00" routeLength="394.76" waitingTime="5.00" waitingCount="1" stopTime="0.00" timeLoss="28.19" rerouteNo="0" devices="tripinfo_f_3.6" vType="type1" speedFactor="1.14" vaporized=""/>
    <tripinfo id="f_2.7" depart="84.00" departLane="193714501#0_0" departPos="5.10" departSpeed="0.00" departDelay="12.00" arrival="117.00" arrivalLane="422972291_1" arrivalPos="44.85" arrivalSpeed="23.86" duration="33.00" routeLength="394.76" waitingTime="0.00" waitingCount="0" stopTime="0.00" timeLoss="16.81" rerouteNo="0" devices="tripinfo_f_2.7" vType="type1" speedFactor="0.88" vaporized=""/>
    <tripinfo id="f_7.4" depart="54.00" departLane="193714501#0_0" departPos="5.10" departSpeed="0.00" departDelay="12.86" arrival="119.00" arrivalLane="-192748755#2_0" arrivalPos="103.11" arrivalSpeed="13.90" duration="65.00" routeLength="437.50" waitingTime="22.00" waitingCount="1" stopTime="0.00" timeLoss="43.67" rerouteNo="0" devices="tripinfo_f_7.4" vType="type1" speedFactor="1.04" vaporized=""/>
    <tripinfo id="f_3.7" depart="87.00" departLane="193714501#0_0" departPos="5.10" departSpeed="0.00" departDelay="15.00" arrival="119.00" arrivalLane="422972291_1" arrivalPos="44.85" arrivalSpeed="24.12" duration="32.00" routeLength="394.76" waitingTime="0.00" waitingCount="0" stopTime="0.00" timeLoss="15.97" rerouteNo="0" devices="tripinfo_f_3.7" vType="type1" speedFactor="0.91" vaporized=""/>
    <tripinfo id="f_0.8" depart="83.00" departLane="-406769344#2_0" departPos="5.10" departSpeed="0.00" departDelay="0.71" arrival="119.00" arrivalLane="192748775_0" arrivalPos="327.83" arrivalSpeed="25.31" duration="36.00" routeLength="578.61" waitingTime="0.00" waitingCount="0" stopTime="0.00" timeLoss="5.04" rerouteNo="0" devices="tripinfo_f_0.8" vType="type1" speedFactor="0.94" vaporized=""/>
    <tripinfo id="f_8.4" depart="57.00" departLane="193714501#0_0" departPos="5.10" departSpeed="0.00" departDelay="15.86" arrival="120.00" arrivalLane="192748767#0_0" arrivalPos="97.24" arrivalSpeed="14.36" duration="63.00" routeLength="433.67" waitingTime="22.00" waitingCount="1" stopTime="0.00" timeLoss="43.52" rerouteNo="0" devices="tripinfo_f_8.4" vType="type1" speedFactor="1.04" vaporized=""/>
    <tripinfo id="f_7.5" depart="66.00" departLane="193714501#0_0" departPos="5.10" departSpeed="0.00" departDelay="14.57" arrival="123.00" arrivalLane="-192748755#2_0" arrivalPos="103.11" arrivalSpeed="13.85" duration="57.00" routeLength="437.50" waitingTime="13.00" waitingCount="1" stopTime="0.00" timeLoss="35.45" rerouteNo="0" devices="tripinfo_f_7.5" vType="type1" speedFactor="1.02" vaporized=""/>
    <tripinfo id="f_8.5" depart="69.00" departLane="193714501#0_0" departPos="5.10" departSpeed="0.00" departDelay="17.57" arrival="123.00" arrivalLane="192748767#0_0" arrivalPos="97.24" arrivalSpeed="14.64" duration="54.00" routeLength="433.67" waitingTime="12.00" waitingCount="1" stopTime="0.00" timeLoss="35.96" rerouteNo="0" devices="tripinfo_f_8.5" vType="type1" speedFactor="1.10" vaporized=""/>
    <tripinfo id="f_0.9" depart="93.00" departLane="-406769344#2_0" departPos="5.10" departSpeed="0.00" departDelay="0.43" arrival="128.00" arrivalLane="192748775_0" arrivalPos="327.83" arrivalSpeed="26.46" duration="35.00" routeLength="578.61" waitingTime="0.00" waitingCount="0" stopTime="0.00" timeLoss="5.84" rerouteNo="0" devices="tripinfo_f_0.9" vType="type1" speedFactor="1.00" vaporized=""/>
    <tripinfo id="f_6.7" depart="78.00" departLane="192748755#0_0" departPos="5.10" departSpeed="0.00" departDelay="6.00" arrival="130.00" arrivalLane="422972291_0" arrivalPos="44.85" arrivalSpeed="20.51" duration="52.00" routeLength="188.57" waitingTime="28.00" waitingCount="1" stopTime="0.00" timeLoss="41.30" rerouteNo="0" devices="tripinfo_f_6.7" vType="type1" speedFactor="1.02" vaporized=""/>
    <tripinfo id="f_5.7" depart="75.00" departLane="192748755#0_0" departPos="5.10" departSpeed="0.00" departDelay="3.00" arrival="131.00" arrivalLane="192748767#0_0" arrivalPos="97.24" arrivalSpeed="13.67" duration="56.00" routeLength="208.43" waitingTime="32.00" waitingCount="1" stopTime="0.00" timeLoss="40.45" rerouteNo="0" devices="tripinfo_f_5.7" vType="type1" speedFactor="1.04" vaporized=""/>
    <tripinfo id="f_1.4" depart="44.00" departLane="-406769344#2_0" departPos="5.10" departSpeed="0.00" departDelay="2.86" arrival="133.00" arrivalLane="-192748755#2_1" arrivalPos="103.11" arrivalSpeed="15.26" duration="89.00" routeLength="363.38" waitingTime="56.00" waitingCount="1" stopTime="0.00" timeLoss="66.72" rerouteNo="0" devices="tripinfo_f_1.4" vType="type1" speedFactor="1.18" vaporized=""/>
    <tripinfo id="f_6.8" depart="88.00" departLane="192748755#0_0" departPos="5.10" departSpeed="0.00" departDelay="5.71" arrival="134.00" arrivalLane="422972291_0" arrivalPos="44.85" arrivalSpeed="21.54" duration="46.00" routeLength="188.57" waitingTime="23.00" waitingCount="1" stopTime="0.00" timeLoss="35.26" rerouteNo="0" devices="tripinfo_f_6.8" vType="type1" speedFactor="1.01" vaporized=""/>
    <tripinfo id="f_5.8" depart="85.00" departLane="192748755#0_0" departPos="5.10" departSpeed="0.00" departDelay="2.71" arrival="136.00" arrivalLane="192748767#0_0" arrivalPos="97.24" arrivalSpeed="13.45" duration="51.00" routeLength="208.43" waitingTime="25.00" waitingCount="1" stopTime="0.00" timeLoss="34.34" rerouteNo="0" devices="tripinfo_f_5.8" vType="type1" speedFactor="0.98" vaporized=""/>
    <tripinfo id="f_1.5" depart="55.00" departLane="-406769344#2_0" departPos="5.10" departSpeed="0.00" departDelay="3.57" arrival="137.00" arrivalLane="-192748755#2_1" arrivalPos="103.11" arrivalSpeed="12.96" duration="82.00" routeLength="363.38" waitingTime="44.00" waitingCount="1" stopTime="0.00" timeLoss="54.90" rerouteNo="0" devices="tripinfo_f_1.5" vType="type1" speedFactor="1.00" vaporized=""/>
    <tripinfo id="f_0.10" depart="103.00" departLane="-406769344#2_0" departPos="5.10" departSpeed="0.00" departDelay="0.14" arrival="138.00" arrivalLane="192748775_0" arrivalPos="327.83" arrivalSpeed="27.96" duration="35.00" routeLength="578.61" waitingTime="0.00" waitingCount="0" stopTime="0.00" timeLoss="6.21" rerouteNo="0" devices="tripinfo_f_0.10" vType="type1" speedFactor="1.02" vaporized=""/>