<?xml version="1.0" encoding="UTF-8"?>

<!-- generated on 2022-07-22 16:22:57 by Eclipse SUMO sumo Version 1.12.0
<configuration xmlns:xsi="http://www.w3.org/2001/XMLSchema-instance" xsi:noNamespaceSchemaLocation="http://sumo.dlr.de/xsd/sumoConfiguration.xsd">

    <input>
        <net-file value="C:\Users\ricca\PycharmProjects\DeepReinforcementLearning_TrafficLight\Simulation\osm.net.xml"/>
        <route-files value="C:\Users\ricca\PycharmProjects\DeepReinforcementLearning_TrafficLight\Simulation\demand.rou.xml"/>
        <additional-files value="C:\Users\ricca\PycharmProjects\DeepReinforcementLearning_TrafficLight\Simulation\detectors.xml"/>
    </input>

    <output>
        <tripinfo-output value="tripinfo.xml"/>
    </output>

    <processing>
        <waiting-time-memory value="10000"/>
    </processing>

    <report>
        <no-warnings value="true"/>
        <duration-log.disable value="true"/>
        <no-step-log value="true"/>
    </report>

    <traci_server>
        <remote-port value="49398"/>
    </traci_server>

</configuration>
-->

<tripinfos xmlns:xsi="http://www.w3.org/2001/XMLSchema-instance" xsi:noNamespaceSchemaLocation="http://sumo.dlr.de/xsd/tripinfo_file.xsd">
    <tripinfo id="f_6.0" depart="6.00" departLane="192748755#0_0" departPos="5.10" departSpeed="0.00" departDelay="6.00" arrival="25.00" arrivalLane="422972291_0" arrivalPos="44.85" arrivalSpeed="20.61" duration="19.00" routeLength="188.57" waitingTime="0.00" waitingCount="0" stopTime="0.00" timeLoss="8.05" rerouteNo="0" devices="tripinfo_f_6.0" vType="DEFAULT_VEHTYPE" speedFactor="1.05" vaporized=""/>
    <tripinfo id="f_5.0" depart="3.00" departLane="192748755#0_0" departPos="5.10" departSpeed="0.00" departDelay="3.00" arrival="26.00" arrivalLane="192748767#0_0" arrivalPos="97.24" arrivalSpeed="10.53" duration="23.00" routeLength="208.43" waitingTime="0.00" waitingCount="0" stopTime="0.00" timeLoss="4.34" rerouteNo="0" devices="tripinfo_f_5.0" vType="DEFAULT_VEHTYPE" speedFactor="0.83" vaporized=""/>
    <tripinfo id="f_5.1" depart="14.00" departLane="192748755#0_0" departPos="5.10" departSpeed="0.00" departDelay="2.00" arrival="34.00" arrivalLane="192748767#0_0" arrivalPos="97.24" arrivalSpeed="14.46" duration="20.00" routeLength="208.43" waitingTime="0.00" waitingCount="0" stopTime="0.00" timeLoss="5.22" rerouteNo="0" devices="tripinfo_f_5.1" vType="DEFAULT_VEHTYPE" speedFactor="1.12" vaporized=""/>
    <tripinfo id="f_4.0" depart="0.00" departLane="192748755#0_0" departPos="5.10" departSpeed="0.00" departDelay="0.00" arrival="36.00" arrivalLane="192748775_1" arrivalPos="327.83" arrivalSpeed="28.41" duration="36.00" routeLength="475.24" waitingTime="1.00" waitingCount="1" stopTime="0.00" timeLoss="13.29" rerouteNo="0" devices="tripinfo_f_4.0" vType="DEFAULT_VEHTYPE" speedFactor="1.03" vaporized=""/>
    <tripinfo id="f_2.0" depart="0.00" departLane="193714501#0_0" departPos="5.10" departSpeed="0.00" departDelay="0.00" arrival="39.00" arrivalLane="422972291_0" arrivalPos="44.85" arrivalSpeed="20.06" duration="39.00" routeLength="394.76" waitingTime="9.00" waitingCount="1" stopTime="0.00" timeLoss="24.66" rerouteNo="0" devices="tripinfo_f_2.0" vType="DEFAULT_VEHTYPE" speedFactor="1.01" vaporized=""/>
    <tripinfo id="f_3.0" depart="3.00" departLane="193714501#0_0" departPos="5.10" departSpeed="0.00" departDelay="3.00" arrival="39.00" arrivalLane="422972291_1" arrivalPos="44.85" arrivalSpeed="19.11" duration="36.00" routeLength="394.76" waitingTime="5.00" waitingCount="1" stopTime="0.00" timeLoss="22.80" rerouteNo="0" devices="tripinfo_f_3.0" vType="DEFAULT_VEHTYPE" speedFactor="1.08" vaporized=""/>
    <tripinfo id="f_3.1" depart="12.00" departLane="193714501#0_0" departPos="5.10" departSpeed="0.00" departDelay="0.00" arrival="41.00" arrivalLane="422972291_1" arrivalPos="44.85" arrivalSpeed="19.59" duration="29.00" routeLength="394.76" waitingTime="0.00" waitingCount="0" stopTime="0.00" timeLoss="14.90" rerouteNo="0" devices="tripinfo_f_3.1" vType="DEFAULT_VEHTYPE" speedFactor="1.03" vaporized=""/>
    <tripinfo id="f_4.1" depart="12.00" departLane="192748755#0_0" departPos="5.10" departSpeed="0.00" departDelay="0.00" arrival="41.00" arrivalLane="192748775_1" arrivalPos="327.83" arrivalSpeed="28.63" duration="29.00" routeLength="475.24" waitingTime="0.00" waitingCount="0" stopTime="0.00" timeLoss="6.87" rerouteNo="0" devices="tripinfo_f_4.1" vType="DEFAULT_VEHTYPE" speedFactor="1.05" vaporized=""/>
    <tripinfo id="f_7.0" depart="6.00" departLane="193714501#0_0" departPos="5.10" departSpeed="0.00" departDelay="6.00" arrival="47.00" arrivalLane="-192748755#2_0" arrivalPos="103.11" arrivalSpeed="11.34" duration="41.00" routeLength="437.50" waitingTime="4.00" waitingCount="1" stopTime="0.00" timeLoss="16.23" rerouteNo="0" devices="tripinfo_f_7.0" vType="DEFAULT_VEHTYPE" speedFactor="0.89" vaporized=""/>
    <tripinfo id="f_8.0" depart="9.00" departLane="193714501#0_0" departPos="5.10" departSpeed="0.00" departDelay="9.00" arrival="48.00" arrivalLane="192748767#0_0" arrivalPos="97.24" arrivalSpeed="12.53" duration="39.00" routeLength="433.67" waitingTime="1.00" waitingCount="1" stopTime="0.00" timeLoss="17.26" rerouteNo="0" devices="tripinfo_f_8.0" vType="DEFAULT_VEHTYPE" speedFactor="0.94" vaporized=""/>
    <tripinfo id="f_0.0" depart="0.00" departLane="-406769344#2_0" departPos="5.10" departSpeed="0.00" departDelay="0.00" arrival="50.00" arrivalLane="192748775_0" arrivalPos="327.83" arrivalSpeed="28.48" duration="50.00" routeLength="578.61" waitingTime="9.00" waitingCount="1" stopTime="0.00" timeLoss="22.77" rerouteNo="0" devices="tripinfo_f_0.0" vType="DEFAULT_VEHTYPE" speedFactor="1.06" vaporized=""/>
    <tripinfo id="f_7.1" depart="15.00" departLane="193714501#0_0" departPos="5.10" departSpeed="0.00" departDelay="3.00" arrival="51.00" arrivalLane="-192748755#2_0" arrivalPos="103.11" arrivalSpeed="12.01" duration="36.00" routeLength="437.50" waitingTime="0.00" waitingCount="0" stopTime="0.00" timeLoss="12.57" rerouteNo="0" devices="tripinfo_f_7.1" vType="DEFAULT_VEHTYPE" speedFactor="0.93" vaporized=""/>
    <tripinfo id="f_0.1" depart="12.00" departLane="-406769344#2_0" departPos="5.10" departSpeed="0.00" departDelay="0.00" arrival="52.00" arrivalLane="192748775_0" arrivalPos="327.83" arrivalSpeed="29.30" duration="40.00" routeLength="578.61" waitingTime="0.00" waitingCount="0" stopTime="0.00" timeLoss="13.15" rerouteNo="0" devices="tripinfo_f_0.1" vType="DEFAULT_VEHTYPE" speedFactor="1.09" vaporized=""/>
    <tripinfo id="f_8.1" depart="18.00" departLane="193714501#0_0" departPos="5.10" departSpeed="0.00" departDelay="6.00" arrival="52.00" arrivalLane="192748767#0_0" arrivalPos="97.24" arrivalSpeed="11.87" duration="34.00" routeLength="433.67" waitingTime="0.00" waitingCount="0" stopTime="0.00" timeLoss="11.25" rerouteNo="0" devices="tripinfo_f_8.1" vType="DEFAULT_VEHTYPE" speedFactor="0.88" vaporized=""/>
    <tripinfo id="f_6.1" depart="17.00" departLane="192748755#0_0" departPos="5.10" departSpeed="0.00" departDelay="5.00" arrival="56.00" arrivalLane="422972291_0" arrivalPos="44.85" arrivalSpeed="19.71" duration="39.00" routeLength="188.57" waitingTime="17.00" waitingCount="1" stopTime="0.00" timeLoss="27.64" rerouteNo="0" devices="tripinfo_f_6.1" vType="DEFAULT_VEHTYPE" speedFactor="0.99" vaporized=""/>
    <tripinfo id="f_0.2" depart="25.00" departLane="-406769344#2_0" departPos="5.10" departSpeed="0.00" departDelay="1.00" arrival="56.00" arrivalLane="192748775_0" arrivalPos="327.83" arrivalSpeed="32.03" duration="31.00" routeLength="578.61" waitingTime="0.00" waitingCount="0" stopTime="0.00" timeLoss="5.95" rerouteNo="0" devices="tripinfo_f_0.2" vType="DEFAULT_VEHTYPE" speedFactor="1.16" vaporized=""/>
    <tripinfo id="f_5.2" depart="27.00" departLane="192748755#0_0" departPos="5.10" departSpeed="0.00" departDelay="3.00" arrival="60.00" arrivalLane="192748767#0_0" arrivalPos="97.24" arrivalSpeed="13.44" duration="33.00" routeLength="208.43" waitingTime="9.00" waitingCount="1" stopTime="0.00" timeLoss="16.78" rerouteNo="0" devices="tripinfo_f_5.2" vType="DEFAULT_VEHTYPE" speedFactor="0.98" vaporized=""/>
    <tripinfo id="f_6.2" depart="30.00" departLane="192748755#0_0" departPos="5.10" departSpeed="0.00" departDelay="6.00" arrival="60.00" arrivalLane="422972291_0" arrivalPos="44.85" arrivalSpeed="20.27" duration="30.00" routeLength="188.57" waitingTime="6.00" waitingCount="1" stopTime="0.00" timeLoss="17.29" rerouteNo="0" devices="tripinfo_f_6.2" vType="DEFAULT_VEHTYPE" speedFactor="0.89" vaporized=""/>
    <tripinfo id="f_1.0" depart="3.00" departLane="-406769344#2_0" departPos="5.10" departSpeed="0.00" departDelay="3.00" arrival="62.00" arrivalLane="-192748755#2_1" arrivalPos="103.11" arrivalSpeed="12.19" duration="59.00" routeLength="363.38" waitingTime="20.00" waitingCount="1" stopTime="0.00" timeLoss="30.74" rerouteNo="0" devices="tripinfo_f_1.0" vType="DEFAULT_VEHTYPE" speedFactor="0.94" vaporized=""/>
    <tripinfo id="f_5.3" depart="38.00" departLane="192748755#0_0" departPos="5.10" departSpeed="0.00" departDelay="2.00" arrival="63.00" arrivalLane="192748767#0_0" arrivalPos="97.24" arrivalSpeed="15.01" duration="25.00" routeLength="208.43" waitingTime="0.00" waitingCount="0" stopTime="0.00" timeLoss="11.31" rerouteNo="0" devices="tripinfo_f_5.3" vType="DEFAULT_VEHTYPE" speedFactor="1.15" vaporized=""/>
    <tripinfo id="f_1.1" depart="8.00" departLane="-406769344#2_0" departPos="5.10" departSpeed="0.00" departDelay="0.80" arrival="65.00" arrivalLane="-192748755#2_1" arrivalPos="103.11" arrivalSpeed="10.70" duration="57.00" routeLength="363.38" waitingTime="16.00" waitingCount="1" stopTime="0.00" timeLoss="26.23" rerouteNo="0" devices="tripinfo_f_1.1" vType="DEFAULT_VEHTYPE" speedFactor="0.86" vaporized=""/>
    <tripinfo id="f_1.2" depart="15.00" departLane="-406769344#2_0" departPos="5.10" departSpeed="0.00" departDelay="0.60" arrival="67.00" arrivalLane="-192748755#2_1" arrivalPos="103.11" arrivalSpeed="12.12" duration="52.00" routeLength="363.38" waitingTime="13.00" waitingCount="1" stopTime="0.00" timeLoss="23.65" rerouteNo="0" devices="tripinfo_f_1.2" vType="DEFAULT_VEHTYPE" speedFactor="0.94" vaporized=""/>
    <tripinfo id="f_1.3" depart="22.00" departLane="-406769344#2_0" departPos="5.10" departSpeed="0.00" departDelay="0.40" arrival="69.00" arrivalLane="-192748755#2_1" arrivalPos="103.11" arrivalSpeed="12.34" duration="47.00" routeLength="363.38" waitingTime="7.00" waitingCount="1" stopTime="0.00" timeLoss="18.35" rerouteNo="0" devices="tripinfo_f_1.3" vType="DEFAULT_VEHTYPE" speedFactor="0.94" vaporized=""/>
    <tripinfo id="f_3.2" depart="24.00" departLane="193714501#0_0" departPos="5.10" departSpeed="0.00" departDelay="0.00" arrival="72.00" arrivalLane="422972291_1" arrivalPos="44.85" arrivalSpeed="21.10" duration="48.00" routeLength="394.76" waitingTime="16.00" waitingCount="1" stopTime="0.00" timeLoss="33.33" rerouteNo="0" devices="tripinfo_f_3.2" vType="DEFAULT_VEHTYPE" speedFactor="1.02" vaporized=""/>
    <tripinfo id="f_0.3" depart="36.00" departLane="-406769344#2_0" departPos="5.10" departSpeed="0.00" departDelay="0.00" arrival="72.00" arrivalLane="192748775_0" arrivalPos="327.83" arrivalSpeed="25.18" duration="36.00" routeLength="578.61" waitingTime="0.00" waitingCount="0" stopTime="0.00" timeLoss="5.20" rerouteNo="0" devices="tripinfo_f_0.3" vType="DEFAULT_VEHTYPE" speedFactor="0.95" vaporized=""/>
    <tripinfo id="f_3.3" depart="36.00" departLane="193714501#0_0" departPos="5.10" departSpeed="0.00" departDelay="0.00" arrival="74.00" arrivalLane="422972291_1" arrivalPos="44.85" arrivalSpeed="18.96" duration="38.00" routeLength="394.76" waitingTime="6.00" waitingCount="1" stopTime="0.00" timeLoss="22.34" rerouteNo="0" devices="tripinfo_f_3.3" vType="DEFAULT_VEHTYPE" speedFactor="0.93" vaporized=""/>
    <tripinfo id="f_3.4" depart="48.00" departLane="193714501#0_0" departPos="5.10" departSpeed="0.00" departDelay="0.00" arrival="76.00" arrivalLane="422972291_1" arrivalPos="44.85" arrivalSpeed="19.83" duration="28.00" routeLength="394.76" waitingTime="0.00" waitingCount="0" stopTime="0.00" timeLoss="15.41" rerouteNo="0" devices="tripinfo_f_3.4" vType="DEFAULT_VEHTYPE" speedFactor="1.18" vaporized=""/>
    <tripinfo id="f_7.2" depart="27.00" departLane="193714501#0_0" departPos="5.10" departSpeed="0.00" departDelay="3.00" arrival="78.00" arrivalLane="-192748755#2_0" arrivalPos="103.11" arrivalSpeed="10.49" duration="51.00" routeLength="437.50" waitingTime="12.00" waitingCount="1" stopTime="0.00" timeLoss="24.63" rerouteNo="0" devices="tripinfo_f_7.2" vType="DEFAULT_VEHTYPE" speedFactor="0.83" vaporized=""/>
    <tripinfo id="f_8.2" depart="30.00" departLane="193714501#0_0" departPos="5.10" departSpeed="0.00" departDelay="6.00" arrival="78.00" arrivalLane="192748767#0_0" arrivalPos="97.24" arrivalSpeed="11.95" duration="48.00" routeLength="433.67" waitingTime="10.00" waitingCount="1" stopTime="0.00" timeLoss="25.18" rerouteNo="0" devices="tripinfo_f_8.2" vType="DEFAULT_VEHTYPE" speedFactor="0.87" vaporized=""/>
    <tripinfo id="f_7.3" depart="39.00" departLane="193714501#0_0" departPos="5.10" departSpeed="0.00" departDelay="3.00" arrival="80.00" arrivalLane="-192748755#2_0" arrivalPos="103.11" arrivalSpeed="15.21" duration="41.00" routeLength="437.50" waitingTime="4.00" waitingCount="1" stopTime="0.00" timeLoss="21.86" rerouteNo="0" devices="tripinfo_f_7.3" vType="DEFAULT_VEHTYPE" speedFactor="1.17" vaporized=""/>
    <tripinfo id="f_8.3" depart="42.00" departLane="193714501#0_0" departPos="5.10" departSpeed="0.00" departDelay="6.00" arrival="81.00" arrivalLane="192748767#0_0" arrivalPos="97.24" arrivalSpeed="13.04" duration="39.00" routeLength="433.67" waitingTime="1.00" waitingCount="1" stopTime="0.00" timeLoss="18.42" rerouteNo="0" devices="tripinfo_f_8.3" vType="DEFAULT_VEHTYPE" speedFactor="0.99" vaporized=""/>
    <tripinfo id="f_0.4" depart="48.00" departLane="-406769344#2_0" departPos="5.10" departSpeed="0.00" departDelay="0.00" arrival="83.00" arrivalLane="192748775_0" arrivalPos="327.83" arrivalSpeed="26.14" duration="35.00" routeLength="578.61" waitingTime="0.00" waitingCount="0" stopTime="0.00" timeLoss="5.07" rerouteNo="0" devices="tripinfo_f_0.4" vType="DEFAULT_VEHTYPE" speedFactor="0.97" vaporized=""/>
    <tripinfo id="f_7.4" depart="51.00" departLane="193714501#0_0" departPos="5.10" departSpeed="0.00" departDelay="3.00" arrival="85.00" arrivalLane="-192748755#2_0" arrivalPos="103.11" arrivalSpeed="12.76" duration="34.00" routeLength="437.50" waitingTime="0.00" waitingCount="0" stopTime="0.00" timeLoss="11.14" rerouteNo="0" devices="tripinfo_f_7.4" vType="DEFAULT_VEHTYPE" speedFactor="0.96" vaporized=""/>
    <tripinfo id="f_6.3" depart="41.00" departLane="192748755#0_0" departPos="5.10" departSpeed="0.00" departDelay="5.00" arrival="87.00" arrivalLane="422972291_0" arrivalPos="44.85" arrivalSpeed="18.12" duration="46.00" routeLength="188.57" waitingTime="20.00" waitingCount="1" stopTime="0.00" timeLoss="35.13" rerouteNo="0" devices="tripinfo_f_6.3" vType="DEFAULT_VEHTYPE" speedFactor="1.01" vaporized=""/>
    <tripinfo id="f_6.4" depart="53.00" departLane="192748755#0_0" departPos="5.10" departSpeed="0.00" departDelay="5.00" arrival="91.00" arrivalLane="422972291_0" arrivalPos="44.85" arrivalSpeed="20.11" duration="38.00" routeLength="188.57" waitingTime="15.00" waitingCount="1" stopTime="0.00" timeLoss="27.23" rerouteNo="0" devices="tripinfo_f_6.4" vType="DEFAULT_VEHTYPE" speedFactor="1.03" vaporized=""/>
    <tripinfo id="f_5.4" depart="50.00" departLane="192748755#0_0" departPos="5.10" departSpeed="0.00" departDelay="2.00" arrival="93.00" arrivalLane="192748767#0_0" arrivalPos="97.24" arrivalSpeed="12.29" duration="43.00" routeLength="208.43" waitingTime="16.00" waitingCount="1" stopTime="0.00" timeLoss="24.82" rerouteNo="0" devices="tripinfo_f_5.4" vType="DEFAULT_VEHTYPE" speedFactor="0.90" vaporized=""/>
    <tripinfo id="f_6.5" depart="65.00" departLane="192748755#0_0" departPos="5.10" departSpeed="0.00" departDelay="5.00" arrival="95.00" arrivalLane="422972291_0" arrivalPos="44.85" arrivalSpeed="19.76" duration="30.00" routeLength="188.57" waitingTime="7.00" waitingCount="1" stopTime="0.00" timeLoss="16.80" rerouteNo="0" devices="tripinfo_f_6.5" vType="DEFAULT_VEHTYPE" speedFactor="0.85" vaporized=""/>
    <tripinfo id="f_5.5" depart="62.00" departLane="192748755#0_0" departPos="5.10" departSpeed="0.00" departDelay="2.00" arrival="97.00" arrivalLane="192748767#0_0" arrivalPos="97.24" arrivalSpeed="11.72" duration="35.00" routeLength="208.43" waitingTime="7.00" waitingCount="1" stopTime="0.00" timeLoss="16.45" rerouteNo="0" devices="tripinfo_f_5.5" vType="DEFAULT_VEHTYPE" speedFactor="0.88" vaporized=""/>
    <tripinfo id="f_6.6" depart="76.00" departLane="192748755#0_0" departPos="5.10" departSpeed="0.00" departDelay="4.00" arrival="98.00" arrivalLane="422972291_0" arrivalPos="44.85" arrivalSpeed="22.06" duration="22.00" routeLength="188.57" waitingTime="0.00" waitingCount="0" stopTime="0.00" timeLoss="11.15" rerouteNo="0" devices="tripinfo_f_6.6" vType="DEFAULT_VEHTYPE" speedFactor="1.02" vaporized=""/>
    <tripinfo id="f_4.2" depart="24.00" departLane="192748755#0_0" departPos="5.10" departSpeed="0.00" departDelay="0.00" arrival="99.00" arrivalLane="192748775_1" arrivalPos="327.83" arrivalSpeed="26.97" duration="75.00" routeLength="475.24" waitingTime="40.00" waitingCount="1" stopTime="0.00" timeLoss="52.18" rerouteNo="0" devices="tripinfo_f_4.2" vType="DEFAULT_VEHTYPE" speedFactor="1.01" vaporized=""/>
    <tripinfo id="f_5.6" depart="73.00" departLane="192748755#0_0" departPos="5.10" departSpeed="0.00" departDelay="1.00" arrival="99.00" arrivalLane="192748767#0_0" arrivalPos="97.24" arrivalSpeed="14.77" duration="26.00" routeLength="208.43" waitingTime="0.00" waitingCount="0" stopTime="0.00" timeLoss="11.66" rerouteNo="0" devices="tripinfo_f_5.6" vType="DEFAULT_VEHTYPE" speedFactor="1.14" vaporized=""/>
    <tripinfo id="f_4.3" depart="36.00" departLane="192748755#0_0" departPos="5.10" departSpeed="0.00" departDelay="0.00" arrival="100.00" arrivalLane="192748775_1" arrivalPos="327.83" arrivalSpeed="29.11" duration="64.00" routeLength="475.24" waitingTime="30.00" waitingCount="1" stopTime="0.00" timeLoss="44.64" rerouteNo="0" devices="tripinfo_f_4.3" vType="DEFAULT_VEHTYPE" speedFactor="1.18" vaporized=""/>
</tripinfos>
