<?xml version="1.0" encoding="UTF-8"?>

<!-- generated on 2022-08-24 15:40:33 by Eclipse SUMO sumo Version 1.12.0
<configuration xmlns:xsi="http://www.w3.org/2001/XMLSchema-instance" xsi:noNamespaceSchemaLocation="http://sumo.dlr.de/xsd/sumoConfiguration.xsd">

    <input>
        <net-file value="C:\Users\ricca\PycharmProjects\DeepReinforcementLearning_TrafficLight\Simulation\osm.net.xml"/>
        <route-files value="C:\Users\ricca\PycharmProjects\DeepReinforcementLearning_TrafficLight\Simulation\demand.rou.xml"/>
        <additional-files value="C:\Users\ricca\PycharmProjects\DeepReinforcementLearning_TrafficLight\Simulation\detectors.xml"/>
    </input>

    <output>
        <tripinfo-output value="tripinfo.xml"/>
    </output>

    <processing>
        <waiting-time-memory value="10000"/>
    </processing>

    <report>
        <no-warnings value="true"/>
        <duration-log.disable value="true"/>
        <no-step-log value="true"/>
    </report>

    <traci_server>
        <remote-port value="51840"/>
    </traci_server>

</configuration>
-->

<tripinfos xmlns:xsi="http://www.w3.org/2001/XMLSchema-instance" xsi:noNamespaceSchemaLocation="http://sumo.dlr.de/xsd/tripinfo_file.xsd">
    <tripinfo id="f_2.0" depart="0.00" departLane="193714501#0_0" departPos="5.10" departSpeed="0.00" departDelay="0.00" arrival="21.00" arrivalLane="422972291_0" arrivalPos="44.85" arrivalSpeed="27.39" duration="21.00" routeLength="394.76" waitingTime="0.00" waitingCount="0" stopTime="0.00" timeLoss="6.66" rerouteNo="0" devices="tripinfo_f_2.0" vType="DEFAULT_VEHTYPE" speedFactor="1.01" vaporized=""/>
    <tripinfo id="f_3.0" depart="3.00" departLane="193714501#0_0" departPos="5.10" departSpeed="0.00" departDelay="3.00" arrival="24.00" arrivalLane="422972291_0" arrivalPos="44.85" arrivalSpeed="29.20" duration="21.00" routeLength="394.76" waitingTime="0.00" waitingCount="0" stopTime="0.00" timeLoss="7.46" rerouteNo="0" devices="tripinfo_f_3.0" vType="DEFAULT_VEHTYPE" speedFactor="1.08" vaporized=""/>
    <tripinfo id="f_0.0" depart="0.00" departLane="-406769344#2_0" departPos="5.10" departSpeed="0.00" departDelay="0.00" arrival="33.00" arrivalLane="192748775_0" arrivalPos="327.83" arrivalSpeed="28.98" duration="33.00" routeLength="578.61" waitingTime="0.00" waitingCount="0" stopTime="0.00" timeLoss="5.32" rerouteNo="0" devices="tripinfo_f_0.0" vType="DEFAULT_VEHTYPE" speedFactor="1.06" vaporized=""/>
    <tripinfo id="f_7.0" depart="6.00" departLane="193714501#0_0" departPos="5.10" departSpeed="0.00" departDelay="6.00" arrival="38.00" arrivalLane="-192748755#2_0" arrivalPos="103.11" arrivalSpeed="11.76" duration="32.00" routeLength="437.50" waitingTime="0.00" waitingCount="0" stopTime="0.00" timeLoss="7.83" rerouteNo="0" devices="tripinfo_f_7.0" vType="DEFAULT_VEHTYPE" speedFactor="0.89" vaporized=""/>
    <tripinfo id="f_8.0" depart="9.00" departLane="193714501#0_0" departPos="5.10" departSpeed="0.00" departDelay="9.00" arrival="39.00" arrivalLane="192748767#0_0" arrivalPos="97.24" arrivalSpeed="12.34" duration="30.00" routeLength="433.67" waitingTime="0.00" waitingCount="0" stopTime="0.00" timeLoss="8.18" rerouteNo="0" devices="tripinfo_f_8.0" vType="DEFAULT_VEHTYPE" speedFactor="0.94" vaporized=""/>
    <tripinfo id="f_6.0" depart="6.00" departLane="192748755#0_0" departPos="5.10" departSpeed="0.00" departDelay="6.00" arrival="47.00" arrivalLane="422972291_0" arrivalPos="44.85" arrivalSpeed="21.15" duration="41.00" routeLength="188.57" waitingTime="18.00" waitingCount="1" stopTime="0.00" timeLoss="30.02" rerouteNo="0" devices="tripinfo_f_6.0" vType="DEFAULT_VEHTYPE" speedFactor="1.05" vaporized=""/>
    <tripinfo id="f_5.0" depart="3.00" departLane="192748755#0_0" departPos="5.10" departSpeed="0.00" departDelay="3.00" arrival="48.00" arrivalLane="192748767#0_0" arrivalPos="97.24" arrivalSpeed="11.02" duration="45.00" routeLength="208.43" waitingTime="18.00" waitingCount="1" stopTime="0.00" timeLoss="26.18" rerouteNo="0" devices="tripinfo_f_5.0" vType="DEFAULT_VEHTYPE" speedFactor="0.83" vaporized=""/>
    <tripinfo id="f_6.1" depart="17.00" departLane="192748755#0_0" departPos="5.10" departSpeed="0.00" departDelay="5.00" arrival="49.00" arrivalLane="422972291_0" arrivalPos="44.85" arrivalSpeed="20.47" duration="32.00" routeLength="188.57" waitingTime="9.00" waitingCount="1" stopTime="0.00" timeLoss="20.61" rerouteNo="0" devices="tripinfo_f_6.1" vType="DEFAULT_VEHTYPE" speedFactor="0.93" vaporized=""/>
    <tripinfo id="f_5.1" depart="14.00" departLane="192748755#0_0" departPos="5.10" departSpeed="0.00" departDelay="2.00" arrival="51.00" arrivalLane="192748767#0_0" arrivalPos="97.24" arrivalSpeed="13.27" duration="37.00" routeLength="208.43" waitingTime="10.00" waitingCount="1" stopTime="0.00" timeLoss="20.51" rerouteNo="0" devices="tripinfo_f_5.1" vType="DEFAULT_VEHTYPE" speedFactor="0.99" vaporized=""/>
    <tripinfo id="f_4.0" depart="0.00" departLane="192748755#0_0" departPos="5.10" departSpeed="0.00" departDelay="0.00" arrival="56.00" arrivalLane="192748775_1" arrivalPos="327.83" arrivalSpeed="28.54" duration="56.00" routeLength="475.24" waitingTime="22.00" waitingCount="1" stopTime="0.00" timeLoss="33.80" rerouteNo="0" devices="tripinfo_f_4.0" vType="DEFAULT_VEHTYPE" speedFactor="1.03" vaporized=""/>
    <tripinfo id="f_6.2" depart="30.00" departLane="192748755#0_0" departPos="5.10" departSpeed="0.00" departDelay="6.00" arrival="56.00" arrivalLane="422972291_0" arrivalPos="44.85" arrivalSpeed="19.87" duration="26.00" routeLength="188.57" waitingTime="0.00" waitingCount="0" stopTime="0.00" timeLoss="12.38" rerouteNo="0" devices="tripinfo_f_6.2" vType="DEFAULT_VEHTYPE" speedFactor="0.83" vaporized=""/>
    <tripinfo id="f_5.2" depart="27.00" departLane="192748755#0_0" departPos="5.10" departSpeed="0.00" departDelay="3.00" arrival="57.00" arrivalLane="192748767#0_0" arrivalPos="97.24" arrivalSpeed="12.21" duration="30.00" routeLength="208.43" waitingTime="1.00" waitingCount="1" stopTime="0.00" timeLoss="11.86" rerouteNo="0" devices="tripinfo_f_5.2" vType="DEFAULT_VEHTYPE" speedFactor="0.89" vaporized=""/>
    <tripinfo id="f_4.1" depart="12.00" departLane="192748755#0_0" departPos="5.10" departSpeed="0.00" departDelay="0.00" arrival="58.00" arrivalLane="192748775_1" arrivalPos="327.83" arrivalSpeed="30.67" duration="46.00" routeLength="475.24" waitingTime="12.00" waitingCount="1" stopTime="0.00" timeLoss="25.10" rerouteNo="0" devices="tripinfo_f_4.1" vType="DEFAULT_VEHTYPE" speedFactor="1.12" vaporized=""/>
    <tripinfo id="f_6.3" depart="41.00" departLane="192748755#0_0" departPos="5.10" departSpeed="0.00" departDelay="5.00" arrival="59.00" arrivalLane="422972291_0" arrivalPos="44.85" arrivalSpeed="21.64" duration="18.00" routeLength="188.57" waitingTime="0.00" waitingCount="0" stopTime="0.00" timeLoss="8.40" rerouteNo="0" devices="tripinfo_f_6.3" vType="DEFAULT_VEHTYPE" speedFactor="1.17" vaporized=""/>
    <tripinfo id="f_5.3" depart="38.00" departLane="192748755#0_0" departPos="5.10" departSpeed="0.00" departDelay="2.00" arrival="60.00" arrivalLane="192748767#0_0" arrivalPos="97.24" arrivalSpeed="13.85" duration="22.00" routeLength="208.43" waitingTime="0.00" waitingCount="0" stopTime="0.00" timeLoss="6.10" rerouteNo="0" devices="tripinfo_f_5.3" vType="DEFAULT_VEHTYPE" speedFactor="1.01" vaporized=""/>
    <tripinfo id="f_4.2" depart="24.00" departLane="192748755#0_0" departPos="5.10" departSpeed="0.00" departDelay="0.00" arrival="61.00" arrivalLane="192748775_1" arrivalPos="327.83" arrivalSpeed="25.95" duration="37.00" routeLength="475.24" waitingTime="1.00" waitingCount="1" stopTime="0.00" timeLoss="12.97" rerouteNo="0" devices="tripinfo_f_4.2" vType="DEFAULT_VEHTYPE" speedFactor="0.98" vaporized=""/>
    <tripinfo id="f_4.3" depart="36.00" departLane="192748755#0_0" departPos="5.10" departSpeed="0.00" departDelay="0.00" arrival="63.00" arrivalLane="192748775_1" arrivalPos="327.83" arrivalSpeed="31.11" duration="27.00" routeLength="475.24" waitingTime="0.00" waitingCount="0" stopTime="0.00" timeLoss="7.11" rerouteNo="0" devices="tripinfo_f_4.3" vType="DEFAULT_VEHTYPE" speedFactor="1.15" vaporized=""/>
    <tripinfo id="f_1.0" depart="3.00" departLane="-406769344#2_0" departPos="5.10" departSpeed="0.00" departDelay="3.00" arrival="67.00" arrivalLane="-192748755#2_1" arrivalPos="103.11" arrivalSpeed="12.20" duration="64.00" routeLength="363.38" waitingTime="25.00" waitingCount="1" stopTime="0.00" timeLoss="35.82" rerouteNo="0" devices="tripinfo_f_1.0" vType="DEFAULT_VEHTYPE" speedFactor="0.94" vaporized=""/>
    <tripinfo id="f_1.1" depart="15.00" departLane="-406769344#2_0" departPos="5.10" departSpeed="0.00" departDelay="3.00" arrival="69.00" arrivalLane="-192748755#2_1" arrivalPos="103.11" arrivalSpeed="14.25" duration="54.00" routeLength="363.38" waitingTime="17.00" waitingCount="1" stopTime="0.00" timeLoss="29.29" rerouteNo="0" devices="tripinfo_f_1.1" vType="DEFAULT_VEHTYPE" speedFactor="1.09" vaporized=""/>
    <tripinfo id="f_1.2" depart="27.00" departLane="-406769344#2_0" departPos="5.10" departSpeed="0.00" departDelay="3.00" arrival="70.00" arrivalLane="-192748755#2_1" arrivalPos="103.11" arrivalSpeed="15.49" duration="43.00" routeLength="363.38" waitingTime="7.00" waitingCount="1" stopTime="0.00" timeLoss="20.31" rerouteNo="0" devices="tripinfo_f_1.2" vType="DEFAULT_VEHTYPE" speedFactor="1.16" vaporized=""/>
    <tripinfo id="f_5.4" depart="50.00" departLane="192748755#0_0" departPos="5.10" departSpeed="0.00" departDelay="2.00" arrival="71.00" arrivalLane="192748767#0_0" arrivalPos="97.24" arrivalSpeed="13.27" duration="21.00" routeLength="208.43" waitingTime="0.00" waitingCount="0" stopTime="0.00" timeLoss="4.18" rerouteNo="0" devices="tripinfo_f_5.4" vType="DEFAULT_VEHTYPE" speedFactor="0.96" vaporized=""/>
    <tripinfo id="f_1.3" depart="39.00" departLane="-406769344#2_0" departPos="5.10" departSpeed="0.00" departDelay="3.00" arrival="72.00" arrivalLane="-192748755#2_1" arrivalPos="103.11" arrivalSpeed="14.76" duration="33.00" routeLength="363.38" waitingTime="0.00" waitingCount="0" stopTime="0.00" timeLoss="9.49" rerouteNo="0" devices="tripinfo_f_1.3" vType="DEFAULT_VEHTYPE" speedFactor="1.13" vaporized=""/>
    <tripinfo id="f_0.1" depart="12.00" departLane="-406769344#2_0" departPos="5.10" departSpeed="0.00" departDelay="0.00" arrival="73.00" arrivalLane="192748775_0" arrivalPos="327.83" arrivalSpeed="23.02" duration="61.00" routeLength="578.61" waitingTime="16.00" waitingCount="1" stopTime="0.00" timeLoss="26.75" rerouteNo="0" devices="tripinfo_f_0.1" vType="DEFAULT_VEHTYPE" speedFactor="0.86" vaporized=""/>
    <tripinfo id="f_0.2" depart="24.00" departLane="-406769344#2_0" departPos="5.10" departSpeed="0.00" departDelay="0.00" arrival="74.00" arrivalLane="192748775_0" arrivalPos="327.83" arrivalSpeed="25.72" duration="50.00" routeLength="578.61" waitingTime="7.00" waitingCount="1" stopTime="0.00" timeLoss="19.16" rerouteNo="0" devices="tripinfo_f_0.2" vType="DEFAULT_VEHTYPE" speedFactor="0.94" vaporized=""/>
    <tripinfo id="f_0.3" depart="36.00" departLane="-406769344#2_0" departPos="5.10" departSpeed="0.00" departDelay="0.00" arrival="76.00" arrivalLane="192748775_0" arrivalPos="327.83" arrivalSpeed="25.53" duration="40.00" routeLength="578.61" waitingTime="0.00" waitingCount="0" stopTime="0.00" timeLoss="9.06" rerouteNo="0" devices="tripinfo_f_0.3" vType="DEFAULT_VEHTYPE" speedFactor="0.95" vaporized=""/>
    <tripinfo id="f_2.1" depart="12.00" departLane="193714501#0_0" departPos="5.10" departSpeed="0.00" departDelay="0.00" arrival="77.00" arrivalLane="422972291_0" arrivalPos="44.85" arrivalSpeed="19.68" duration="65.00" routeLength="394.76" waitingTime="32.00" waitingCount="1" stopTime="0.00" timeLoss="50.60" rerouteNo="0" devices="tripinfo_f_2.1" vType="DEFAULT_VEHTYPE" speedFactor="1.03" vaporized=""/>
    <tripinfo id="f_3.1" depart="15.00" departLane="193714501#0_0" departPos="5.10" departSpeed="0.00" departDelay="3.00" arrival="77.00" arrivalLane="422972291_1" arrivalPos="44.85" arrivalSpeed="18.46" duration="62.00" routeLength="394.76" waitingTime="29.00" waitingCount="1" stopTime="0.00" timeLoss="48.10" rerouteNo="0" devices="tripinfo_f_3.1" vType="DEFAULT_VEHTYPE" speedFactor="1.05" vaporized=""/>
    <tripinfo id="f_2.2" depart="24.00" departLane="193714501#0_0" departPos="5.10" departSpeed="0.00" departDelay="0.00" arrival="79.00" arrivalLane="422972291_1" arrivalPos="44.85" arrivalSpeed="19.59" duration="55.00" routeLength="394.76" waitingTime="23.00" waitingCount="1" stopTime="0.00" timeLoss="40.65" rerouteNo="0" devices="tripinfo_f_2.2" vType="DEFAULT_VEHTYPE" speedFactor="1.02" vaporized=""/>
    <tripinfo id="f_3.2" depart="27.00" departLane="193714501#0_0" departPos="5.10" departSpeed="0.00" departDelay="3.00" arrival="81.00" arrivalLane="422972291_1" arrivalPos="44.85" arrivalSpeed="21.26" duration="54.00" routeLength="394.76" waitingTime="20.00" waitingCount="1" stopTime="0.00" timeLoss="39.36" rerouteNo="0" devices="tripinfo_f_3.2" vType="DEFAULT_VEHTYPE" speedFactor="1.01" vaporized=""/>
    <tripinfo id="f_2.3" depart="36.00" departLane="193714501#0_0" departPos="5.10" departSpeed="0.00" departDelay="0.00" arrival="82.00" arrivalLane="422972291_1" arrivalPos="44.85" arrivalSpeed="20.74" duration="46.00" routeLength="394.76" waitingTime="11.00" waitingCount="1" stopTime="0.00" timeLoss="30.47" rerouteNo="0" devices="tripinfo_f_2.3" vType="DEFAULT_VEHTYPE" speedFactor="0.93" vaporized=""/>
    <tripinfo id="f_0.4" depart="48.00" departLane="-406769344#2_0" departPos="5.10" departSpeed="0.00" departDelay="0.00" arrival="83.00" arrivalLane="192748775_0" arrivalPos="327.83" arrivalSpeed="26.95" duration="35.00" routeLength="578.61" waitingTime="0.00" waitingCount="0" stopTime="0.00" timeLoss="5.22" rerouteNo="0" devices="tripinfo_f_0.4" vType="DEFAULT_VEHTYPE" speedFactor="0.97" vaporized=""/>
    <tripinfo id="f_3.3" depart="39.00" departLane="193714501#0_0" departPos="5.10" departSpeed="0.00" departDelay="3.00" arrival="84.00" arrivalLane="422972291_1" arrivalPos="44.85" arrivalSpeed="19.90" duration="45.00" routeLength="394.76" waitingTime="10.00" waitingCount="1" stopTime="0.00" timeLoss="32.78" rerouteNo="0" devices="tripinfo_f_3.3" vType="DEFAULT_VEHTYPE" speedFactor="1.18" vaporized=""/>
    <tripinfo id="f_7.1" depart="18.00" departLane="193714501#0_0" departPos="5.10" departSpeed="0.00" departDelay="6.00" arrival="85.00" arrivalLane="-192748755#2_0" arrivalPos="103.11" arrivalSpeed="11.78" duration="67.00" routeLength="437.50" waitingTime="28.00" waitingCount="1" stopTime="0.00" timeLoss="42.05" rerouteNo="0" devices="tripinfo_f_7.1" vType="DEFAULT_VEHTYPE" speedFactor="0.88" vaporized=""/>
    <tripinfo id="f_8.1" depart="21.00" departLane="193714501#0_0" departPos="5.10" departSpeed="0.00" departDelay="9.00" arrival="85.00" arrivalLane="192748767#0_0" arrivalPos="97.24" arrivalSpeed="12.56" duration="64.00" routeLength="433.67" waitingTime="26.00" waitingCount="1" stopTime="0.00" timeLoss="43.11" rerouteNo="0" devices="tripinfo_f_8.1" vType="DEFAULT_VEHTYPE" speedFactor="0.94" vaporized=""/>
    <tripinfo id="f_2.4" depart="48.00" departLane="193714501#0_0" departPos="5.10" departSpeed="0.00" departDelay="0.00" arrival="86.00" arrivalLane="422972291_1" arrivalPos="44.85" arrivalSpeed="21.91" duration="38.00" routeLength="394.76" waitingTime="3.00" waitingCount="1" stopTime="0.00" timeLoss="24.53" rerouteNo="0" devices="tripinfo_f_2.4" vType="DEFAULT_VEHTYPE" speedFactor="1.10" vaporized=""/>
    <tripinfo id="f_3.4" depart="51.00" departLane="193714501#0_0" departPos="5.10" departSpeed="0.00" departDelay="3.00" arrival="87.00" arrivalLane="422972291_1" arrivalPos="44.85" arrivalSpeed="22.53" duration="36.00" routeLength="394.76" waitingTime="0.00" waitingCount="0" stopTime="0.00" timeLoss="19.91" rerouteNo="0" devices="tripinfo_f_3.4" vType="DEFAULT_VEHTYPE" speedFactor="0.90" vaporized=""/>
    <tripinfo id="f_7.2" depart="30.00" departLane="193714501#0_0" departPos="5.10" departSpeed="0.00" departDelay="6.00" arrival="89.00" arrivalLane="-192748755#2_0" arrivalPos="103.11" arrivalSpeed="11.09" duration="59.00" routeLength="437.50" waitingTime="18.00" waitingCount="1" stopTime="0.00" timeLoss="34.02" rerouteNo="0" devices="tripinfo_f_7.2" vType="DEFAULT_VEHTYPE" speedFactor="0.87" vaporized=""/>
    <tripinfo id="f_2.5" depart="60.00" departLane="193714501#0_0" departPos="5.10" departSpeed="0.00" departDelay="0.00" arrival="89.00" arrivalLane="422972291_1" arrivalPos="44.85" arrivalSpeed="24.47" duration="29.00" routeLength="394.76" waitingTime="0.00" waitingCount="0" stopTime="0.00" timeLoss="12.32" rerouteNo="0" devices="tripinfo_f_2.5" vType="DEFAULT_VEHTYPE" speedFactor="0.90" vaporized=""/>
    <tripinfo id="f_8.2" depart="33.00" departLane="193714501#0_0" departPos="5.10" departSpeed="0.00" departDelay="9.00" arrival="90.00" arrivalLane="192748767#0_0" arrivalPos="97.24" arrivalSpeed="12.67" duration="57.00" routeLength="433.67" waitingTime="15.00" waitingCount="1" stopTime="0.00" timeLoss="34.81" rerouteNo="0" devices="tripinfo_f_8.2" vType="DEFAULT_VEHTYPE" speedFactor="0.92" vaporized=""/>
    <tripinfo id="f_3.5" depart="63.00" departLane="193714501#0_0" departPos="5.10" departSpeed="0.00" departDelay="3.00" arrival="90.00" arrivalLane="422972291_1" arrivalPos="44.85" arrivalSpeed="22.25" duration="27.00" routeLength="394.76" waitingTime="0.00" waitingCount="0" stopTime="0.00" timeLoss="10.68" rerouteNo="0" devices="tripinfo_f_3.5" vType="DEFAULT_VEHTYPE" speedFactor="0.88" vaporized=""/>
    <tripinfo id="f_7.3" depart="42.00" departLane="193714501#0_0" departPos="5.10" departSpeed="0.00" departDelay="6.00" arrival="92.00" arrivalLane="-192748755#2_0" arrivalPos="103.11" arrivalSpeed="12.67" duration="50.00" routeLength="437.50" waitingTime="8.00" waitingCount="1" stopTime="0.00" timeLoss="28.05" rerouteNo="0" devices="tripinfo_f_7.3" vType="DEFAULT_VEHTYPE" speedFactor="0.99" vaporized=""/>
    <tripinfo id="f_0.5" depart="60.00" departLane="-406769344#2_0" departPos="5.10" departSpeed="0.00" departDelay="0.00" arrival="92.00" arrivalLane="192748775_0" arrivalPos="327.83" arrivalSpeed="30.07" duration="32.00" routeLength="578.61" waitingTime="0.00" waitingCount="0" stopTime="0.00" timeLoss="5.80" rerouteNo="0" devices="tripinfo_f_0.5" vType="DEFAULT_VEHTYPE" speedFactor="1.09" vaporized=""/>
    <tripinfo id="f_8.3" depart="45.00" departLane="193714501#0_0" departPos="5.10" departSpeed="0.00" departDelay="9.00" arrival="93.00" arrivalLane="192748767#0_0" arrivalPos="97.24" arrivalSpeed="13.28" duration="48.00" routeLength="433.67" waitingTime="8.00" waitingCount="1" stopTime="0.00" timeLoss="28.24" rerouteNo="0" devices="tripinfo_f_8.3" vType="DEFAULT_VEHTYPE" speedFactor="1.02" vaporized=""/>
    <tripinfo id="f_7.4" depart="54.00" departLane="193714501#0_0" departPos="5.10" departSpeed="0.00" departDelay="6.00" arrival="96.00" arrivalLane="-192748755#2_0" arrivalPos="103.11" arrivalSpeed="13.33" duration="42.00" routeLength="437.50" waitingTime="0.00" waitingCount="0" stopTime="0.00" timeLoss="20.81" rerouteNo="0" devices="tripinfo_f_7.4" vType="DEFAULT_VEHTYPE" speedFactor="1.04" vaporized=""/>
    <tripinfo id="f_8.4" depart="57.00" departLane="193714501#0_0" departPos="5.10" departSpeed="0.00" departDelay="9.00" arrival="96.00" arrivalLane="192748767#0_0" arrivalPos="97.24" arrivalSpeed="13.43" duration="39.00" routeLength="433.67" waitingTime="0.00" waitingCount="0" stopTime="0.00" timeLoss="20.24" rerouteNo="0" devices="tripinfo_f_8.4" vType="DEFAULT_VEHTYPE" speedFactor="1.04" vaporized=""/>
    <tripinfo id="f_6.4" depart="53.00" departLane="192748755#0_0" departPos="5.10" departSpeed="0.00" departDelay="5.00" arrival="103.00" arrivalLane="422972291_0" arrivalPos="44.85" arrivalSpeed="17.46" duration="50.00" routeLength="188.57" waitingTime="28.00" waitingCount="1" stopTime="0.00" timeLoss="39.76" rerouteNo="0" devices="tripinfo_f_6.4" vType="DEFAULT_VEHTYPE" speedFactor="1.09" vaporized=""/>
    <tripinfo id="f_6.5" depart="65.00" departLane="192748755#0_0" departPos="5.10" departSpeed="0.00" departDelay="5.00" arrival="107.00" arrivalLane="422972291_0" arrivalPos="44.85" arrivalSpeed="19.56" duration="42.00" routeLength="188.57" waitingTime="18.00" waitingCount="1" stopTime="0.00" timeLoss="32.25" rerouteNo="0" devices="tripinfo_f_6.5" vType="DEFAULT_VEHTYPE" speedFactor="1.17" vaporized=""/>
    <tripinfo id="f_5.5" depart="62.00" departLane="192748755#0_0" departPos="5.10" departSpeed="0.00" departDelay="2.00" arrival="108.00" arrivalLane="192748767#0_0" arrivalPos="97.24" arrivalSpeed="11.57" duration="46.00" routeLength="208.43" waitingTime="20.00" waitingCount="1" stopTime="0.00" timeLoss="27.66" rerouteNo="0" devices="tripinfo_f_5.5" vType="DEFAULT_VEHTYPE" speedFactor="0.85" vaporized=""/>
    <tripinfo id="f_6.6" depart="77.00" departLane="192748755#0_0" departPos="5.10" departSpeed="0.00" departDelay="5.00" arrival="110.00" arrivalLane="422972291_0" arrivalPos="44.85" arrivalSpeed="20.99" duration="33.00" routeLength="188.57" waitingTime="10.00" waitingCount="1" stopTime="0.00" timeLoss="22.86" rerouteNo="0" devices="tripinfo_f_6.6" vType="DEFAULT_VEHTYPE" speedFactor="1.08" vaporized=""/>
    <tripinfo id="f_5.6" depart="74.00" departLane="192748755#0_0" departPos="5.10" departSpeed="0.00" departDelay="2.00" arrival="112.00" arrivalLane="192748767#0_0" arrivalPos="97.24" arrivalSpeed="12.24" duration="38.00" routeLength="208.43" waitingTime="11.00" waitingCount="1" stopTime="0.00" timeLoss="21.32" rerouteNo="0" devices="tripinfo_f_5.6" vType="DEFAULT_VEHTYPE" speedFactor="0.97" vaporized=""/>
    <tripinfo id="f_6.7" depart="89.00" departLane="192748755#0_0" departPos="5.10" departSpeed="0.00" departDelay="5.00" arrival="114.00" arrivalLane="422972291_0" arrivalPos="44.85" arrivalSpeed="20.99" duration="25.00" routeLength="188.57" waitingTime="1.00" waitingCount="1" stopTime="0.00" timeLoss="14.37" rerouteNo="0" devices="tripinfo_f_6.7" vType="DEFAULT_VEHTYPE" speedFactor="1.02" vaporized=""/>
    <tripinfo id="f_4.4" depart="48.00" departLane="192748755#0_0" departPos="5.10" departSpeed="0.00" departDelay="0.00" arrival="115.00" arrivalLane="192748775_1" arrivalPos="327.83" arrivalSpeed="27.98" duration="67.00" routeLength="475.24" waitingTime="31.00" waitingCount="1" stopTime="0.00" timeLoss="44.09" rerouteNo="0" devices="tripinfo_f_4.4" vType="DEFAULT_VEHTYPE" speedFactor="1.03" vaporized=""/>
    <tripinfo id="f_5.7" depart="86.00" departLane="192748755#0_0" departPos="5.10" departSpeed="0.00" departDelay="2.00" arrival="115.00" arrivalLane="192748767#0_0" arrivalPos="97.24" arrivalSpeed="13.64" duration="29.00" routeLength="208.43" waitingTime="2.00" waitingCount="1" stopTime="0.00" timeLoss="13.91" rerouteNo="0" devices="tripinfo_f_5.7" vType="DEFAULT_VEHTYPE" speedFactor="1.04" vaporized=""/>
    <tripinfo id="f_6.8" depart="101.00" departLane="192748755#0_0" departPos="5.10" departSpeed="0.00" departDelay="5.00" arrival="118.00" arrivalLane="422972291_0" arrivalPos="44.85" arrivalSpeed="21.71" duration="17.00" routeLength="188.57" waitingTime="0.00" waitingCount="0" stopTime="0.00" timeLoss="6.21" rerouteNo="0" devices="tripinfo_f_6.8" vType="DEFAULT_VEHTYPE" speedFactor="1.01" vaporized=""/>
    <tripinfo id="f_4.5" depart="60.00" departLane="192748755#0_0" departPos="5.10" departSpeed="0.00" departDelay="0.00" arrival="119.00" arrivalLane="192748775_1" arrivalPos="327.83" arrivalSpeed="22.65" duration="59.00" routeLength="475.24" waitingTime="21.00" waitingCount="1" stopTime="0.00" timeLoss="31.87" rerouteNo="0" devices="tripinfo_f_4.5" vType="DEFAULT_VEHTYPE" speedFactor="0.85" vaporized=""/>
    <tripinfo id="f_5.8" depart="98.00" departLane="192748755#0_0" departPos="5.10" departSpeed="0.00" departDelay="2.00" arrival="120.00" arrivalLane="192748767#0_0" arrivalPos="97.24" arrivalSpeed="12.44" duration="22.00" routeLength="208.43" waitingTime="0.00" waitingCount="0" stopTime="0.00" timeLoss="5.91" rerouteNo="0" devices="tripinfo_f_5.8" vType="DEFAULT_VEHTYPE" speedFactor="0.98" vaporized=""/>
    <tripinfo id="f_4.6" depart="72.00" departLane="192748755#0_0" departPos="5.10" departSpeed="0.00" departDelay="0.00" arrival="121.00" arrivalLane="192748775_1" arrivalPos="327.83" arrivalSpeed="26.97" duration="49.00" routeLength="475.24" waitingTime="12.00" waitingCount="1" stopTime="0.00" timeLoss="25.88" rerouteNo="0" devices="tripinfo_f_4.6" vType="DEFAULT_VEHTYPE" speedFactor="1.02" vaporized=""/>
    <tripinfo id="f_4.7" depart="84.00" departLane="192748755#0_0" departPos="5.10" departSpeed="0.00" departDelay="0.00" arrival="122.00" arrivalLane="192748775_1" arrivalPos="327.83" arrivalSpeed="24.42" duration="38.00" routeLength="475.24" waitingTime="2.00" waitingCount="1" stopTime="0.00" timeLoss="12.81" rerouteNo="0" devices="tripinfo_f_4.7" vType="DEFAULT_VEHTYPE" speedFactor="0.91" vaporized=""/>
    <tripinfo id="f_1.4" depart="51.00" departLane="-406769344#2_0" departPos="5.10" departSpeed="0.00" departDelay="3.00" arrival="123.00" arrivalLane="-192748755#2_1" arrivalPos="103.11" arrivalSpeed="15.60" duration="72.00" routeLength="363.38" waitingTime="39.00" waitingCount="1" stopTime="0.00" timeLoss="49.45" rerouteNo="0" devices="tripinfo_f_1.4" vType="DEFAULT_VEHTYPE" speedFactor="1.18" vaporized=""/>
    <tripinfo id="f_1.5" depart="63.00" departLane="-406769344#2_0" departPos="5.10" departSpeed="0.00" departDelay="3.00" arrival="126.00" arrivalLane="-192748755#2_1" arrivalPos="103.11" arrivalSpeed="13.08" duration="63.00" routeLength="363.38" waitingTime="27.00" waitingCount="1" stopTime="0.00" timeLoss="36.61" rerouteNo="0" devices="tripinfo_f_1.5" vType="DEFAULT_VEHTYPE" speedFactor="1.00" vaporized=""/>
    <tripinfo id="f_1.6" depart="75.00" departLane="-406769344#2_0" departPos="5.10" departSpeed="0.00" departDelay="3.00" arrival="128.00" arrivalLane="-192748755#2_1" arrivalPos="103.11" arrivalSpeed="13.41" duration="53.00" routeLength="363.38" waitingTime="15.00" waitingCount="1" stopTime="0.00" timeLoss="26.48" rerouteNo="0" devices="tripinfo_f_1.6" vType="DEFAULT_VEHTYPE" speedFactor="1.00" vaporized=""/>
    <tripinfo id="f_0.6" depart="72.00" departLane="-406769344#2_0" departPos="5.10" departSpeed="0.00" departDelay="0.00" arrival="130.00" arrivalLane="192748775_0" arrivalPos="327.83" arrivalSpeed="26.66" duration="58.00" routeLength="578.61" waitingTime="16.00" waitingCount="1" stopTime="0.00" timeLoss="28.72" rerouteNo="0" devices="tripinfo_f_0.6" vType="DEFAULT_VEHTYPE" speedFactor="1.00" vaporized=""/>
    <tripinfo id="f_5.9" depart="110.00" departLane="192748755#0_0" departPos="5.10" departSpeed="0.00" departDelay="2.00" arrival="130.00" arrivalLane="192748767#0_0" arrivalPos="97.24" arrivalSpeed="13.75" duration="20.00" routeLength="208.43" waitingTime="0.00" waitingCount="0" stopTime="0.00" timeLoss="4.18" rerouteNo="0" devices="tripinfo_f_5.9" vType="DEFAULT_VEHTYPE" speedFactor="1.00" vaporized=""/>
    <tripinfo id="f_1.7" depart="87.00" departLane="-406769344#2_0" departPos="5.10" departSpeed="0.00" departDelay="3.00" arrival="131.00" arrivalLane="-192748755#2_1" arrivalPos="103.11" arrivalSpeed="11.98" duration="44.00" routeLength="363.38" waitingTime="5.00" waitingCount="1" stopTime="0.00" timeLoss="15.33" rerouteNo="0" devices="tripinfo_f_1.7" vType="DEFAULT_VEHTYPE" speedFactor="0.94" vaporized=""/>
    <tripinfo id="f_0.7" depart="84.00" departLane="-406769344#2_0" departPos="5.10" departSpeed="0.00" departDelay="0.00" arrival="132.00" arrivalLane="192748775_0" arrivalPos="327.83" arrivalSpeed="26.36" duration="48.00" routeLength="578.61" waitingTime="6.00" waitingCount="1" stopTime="0.00" timeLoss="18.03" rerouteNo="0" devices="tripinfo_f_0.7" vType="DEFAULT_VEHTYPE" speedFactor="0.99" vaporized=""/>
    <tripinfo id="f_1.8" depart="99.00" departLane="-406769344#2_0" departPos="5.10" departSpeed="0.00" departDelay="3.00" arrival="132.00" arrivalLane="-192748755#2_1" arrivalPos="103.11" arrivalSpeed="13.94" duration="33.00" routeLength="363.38" waitingTime="0.00" waitingCount="0" stopTime="0.00" timeLoss="8.00" rerouteNo="0" devices="tripinfo_f_1.8" vType="DEFAULT_VEHTYPE" speedFactor="1.06" vaporized=""/>
    <tripinfo id="f_0.8" depart="96.00" departLane="-406769344#2_0" departPos="5.10" departSpeed="0.00" departDelay="0.00" arrival="133.00" arrivalLane="192748775_0" arrivalPos="327.83" arrivalSpeed="25.02" duration="37.00" routeLength="578.61" waitingTime="0.00" waitingCount="0" stopTime="0.00" timeLoss="6.50" rerouteNo="0" devices="tripinfo_f_0.8" vType="DEFAULT_VEHTYPE" speedFactor="0.94" vaporized=""/>
    <tripinfo id="f_2.6" depart="72.00" departLane="193714501#0_0" departPos="5.10" departSpeed="0.00" departDelay="0.00" arrival="135.00" arrivalLane="422972291_1" arrivalPos="44.85" arrivalSpeed="17.69" duration="63.00" routeLength="394.76" waitingTime="29.00" waitingCount="1" stopTime="0.00" timeLoss="47.10" rerouteNo="0" devices="tripinfo_f_2.6" vType="DEFAULT_VEHTYPE" speedFactor="0.90" vaporized=""/>
    <tripinfo id="f_3.6" depart="75.00" departLane="193714501#0_0" departPos="5.10" departSpeed="0.00" departDelay="3.00" arrival="137.00" arrivalLane="422972291_1" arrivalPos="44.85" arrivalSpeed="19.69" duration="62.00" routeLength="394.76" waitingTime="28.00" waitingCount="1" stopTime="0.00" timeLoss="49.18" rerouteNo="0" devices="tripinfo_f_3.6" vType="DEFAULT_VEHTYPE" speedFactor="1.14" vaporized=""/>
    <tripinfo id="f_2.7" depart="84.00" departLane="193714501#0_0" departPos="5.10" departSpeed="0.00" departDelay="0.00" arrival="138.00" arrivalLane="422972291_1" arrivalPos="44.85" arrivalSpeed="18.89" duration="54.00" routeLength="394.76" waitingTime="20.00" waitingCount="1" stopTime="0.00" timeLoss="37.83" rerouteNo="0" devices="tripinfo_f_2.7" vType="DEFAULT_VEHTYPE" speedFactor="0.88" vaporized=""/>