<?xml version="1.0" encoding="UTF-8"?>

<!-- generated on 2023-03-02 11:24:20 by Eclipse SUMO sumo Version 1.16.0
<configuration xmlns:xsi="http://www.w3.org/2001/XMLSchema-instance" xsi:noNamespaceSchemaLocation="http://sumo.dlr.de/xsd/sumoConfiguration.xsd">

    <input>
        <net-file value="./Simulation/osm.net.xml"/>
        <route-files value="./Simulation/demand.rou.xml"/>
        <additional-files value="./Simulation/detectors.xml"/>
    </input>

    <output>
        <tripinfo-output value="tripinfo.xml"/>
    </output>

    <processing>
        <waiting-time-memory value="10000"/>
    </processing>

    <report>
        <no-warnings value="true"/>
        <duration-log.disable value="true"/>
        <no-step-log value="true"/>
    </report>

    <traci_server>
        <remote-port value="54558"/>
    </traci_server>

    <gui_only>
        <gui-settings-file value="./Simulation/viewsettings.xml"/>
        <quit-on-end value="true"/>
        <start value="false"/>
    </gui_only>

</configuration>
-->

<tripinfos xmlns:xsi="http://www.w3.org/2001/XMLSchema-instance" xsi:noNamespaceSchemaLocation="http://sumo.dlr.de/xsd/tripinfo_file.xsd">
    <tripinfo id="f_6.0" depart="6.00" departLane="192748755#0_0" departPos="5.10" departSpeed="0.00" departDelay="6.00" arrival="24.00" arrivalLane="422972291_0" arrivalPos="44.85" arrivalSpeed="20.53" duration="18.00" routeLength="188.57" waitingTime="0.00" waitingCount="0" stopTime="0.00" timeLoss="7.39" rerouteNo="0" devices="tripinfo_f_6.0" vType="DEFAULT_VEHTYPE" speedFactor="1.05" vaporized=""/>
    <tripinfo id="f_5.0" depart="3.00" departLane="192748755#0_0" departPos="5.10" departSpeed="0.00" departDelay="3.00" arrival="26.00" arrivalLane="192748767#0_0" arrivalPos="97.24" arrivalSpeed="10.53" duration="23.00" routeLength="208.43" waitingTime="0.00" waitingCount="0" stopTime="0.00" timeLoss="4.08" rerouteNo="0" devices="tripinfo_f_5.0" vType="DEFAULT_VEHTYPE" speedFactor="0.83" vaporized=""/>
    <tripinfo id="f_4.0" depart="0.00" departLane="192748755#0_0" departPos="5.10" departSpeed="0.00" departDelay="0.00" arrival="29.00" arrivalLane="192748775_1" arrivalPos="327.83" arrivalSpeed="27.47" duration="29.00" routeLength="475.24" waitingTime="0.00" waitingCount="0" stopTime="0.00" timeLoss="6.67" rerouteNo="0" devices="tripinfo_f_4.0" vType="DEFAULT_VEHTYPE" speedFactor="1.03" vaporized=""/>
    <tripinfo id="f_6.1" depart="16.00" departLane="192748755#0_0" departPos="5.10" departSpeed="0.00" departDelay="5.71" arrival="33.00" arrivalLane="422972291_0" arrivalPos="44.85" arrivalSpeed="22.34" duration="17.00" routeLength="188.57" waitingTime="0.00" waitingCount="0" stopTime="0.00" timeLoss="5.31" rerouteNo="0" devices="tripinfo_f_6.1" vType="DEFAULT_VEHTYPE" speedFactor="0.93" vaporized=""/>
    <tripinfo id="f_5.1" depart="13.00" departLane="192748755#0_0" departPos="5.10" departSpeed="0.00" departDelay="2.71" arrival="34.00" arrivalLane="192748767#0_0" arrivalPos="97.24" arrivalSpeed="13.21" duration="21.00" routeLength="208.43" waitingTime="0.00" waitingCount="0" stopTime="0.00" timeLoss="4.55" rerouteNo="0" devices="tripinfo_f_5.1" vType="DEFAULT_VEHTYPE" speedFactor="0.99" vaporized=""/>
    <tripinfo id="f_4.1" depart="11.00" departLane="192748755#0_0" departPos="5.10" departSpeed="0.00" departDelay="0.71" arrival="38.00" arrivalLane="192748775_1" arrivalPos="327.83" arrivalSpeed="30.74" duration="27.00" routeLength="475.24" waitingTime="0.00" waitingCount="0" stopTime="0.00" timeLoss="6.35" rerouteNo="0" devices="tripinfo_f_4.1" vType="DEFAULT_VEHTYPE" speedFactor="1.12" vaporized=""/>
    <tripinfo id="f_5.2" depart="23.00" departLane="192748755#0_0" departPos="5.10" departSpeed="0.00" departDelay="2.43" arrival="45.00" arrivalLane="192748767#0_0" arrivalPos="97.24" arrivalSpeed="12.09" duration="22.00" routeLength="208.43" waitingTime="0.00" waitingCount="0" stopTime="0.00" timeLoss="4.07" rerouteNo="0" devices="tripinfo_f_5.2" vType="DEFAULT_VEHTYPE" speedFactor="0.89" vaporized=""/>
    <tripinfo id="f_2.0" depart="0.00" departLane="193714501#0_0" departPos="5.10" departSpeed="0.00" departDelay="0.00" arrival="48.00" arrivalLane="422972291_0" arrivalPos="44.85" arrivalSpeed="19.48" duration="48.00" routeLength="394.76" waitingTime="18.00" waitingCount="1" stopTime="0.00" timeLoss="33.73" rerouteNo="0" devices="tripinfo_f_2.0" vType="DEFAULT_VEHTYPE" speedFactor="1.01" vaporized=""/>
    <tripinfo id="f_3.0" depart="3.00" departLane="193714501#0_0" departPos="5.10" departSpeed="0.00" departDelay="3.00" arrival="49.00" arrivalLane="422972291_0" arrivalPos="44.85" arrivalSpeed="19.32" duration="46.00" routeLength="394.76" waitingTime="14.00" waitingCount="1" stopTime="0.00" timeLoss="32.43" rerouteNo="0" devices="tripinfo_f_3.0" vType="DEFAULT_VEHTYPE" speedFactor="1.08" vaporized=""/>
    <tripinfo id="f_4.2" depart="21.00" departLane="192748755#0_0" departPos="5.10" departSpeed="0.00" departDelay="0.43" arrival="50.00" arrivalLane="192748775_1" arrivalPos="327.83" arrivalSpeed="25.79" duration="29.00" routeLength="475.24" waitingTime="0.00" waitingCount="0" stopTime="0.00" timeLoss="5.80" rerouteNo="0" devices="tripinfo_f_4.2" vType="DEFAULT_VEHTYPE" speedFactor="0.97" vaporized=""/>
    <tripinfo id="f_2.1" depart="12.00" departLane="193714501#0_0" departPos="5.10" departSpeed="0.00" departDelay="1.71" arrival="51.00" arrivalLane="422972291_1" arrivalPos="44.85" arrivalSpeed="18.66" duration="39.00" routeLength="394.76" waitingTime="4.00" waitingCount="1" stopTime="0.00" timeLoss="24.80" rerouteNo="0" devices="tripinfo_f_2.1" vType="DEFAULT_VEHTYPE" speedFactor="1.03" vaporized=""/>
    <tripinfo id="f_3.1" depart="15.00" departLane="193714501#0_0" departPos="5.10" departSpeed="0.00" departDelay="4.71" arrival="52.00" arrivalLane="422972291_1" arrivalPos="44.85" arrivalSpeed="20.05" duration="37.00" routeLength="394.76" waitingTime="4.00" waitingCount="1" stopTime="0.00" timeLoss="23.42" rerouteNo="0" devices="tripinfo_f_3.1" vType="DEFAULT_VEHTYPE" speedFactor="1.05" vaporized=""/>
    <tripinfo id="f_2.2" depart="24.00" departLane="193714501#0_0" departPos="5.10" departSpeed="0.00" departDelay="3.43" arrival="54.00" arrivalLane="422972291_1" arrivalPos="44.85" arrivalSpeed="21.36" duration="30.00" routeLength="394.76" waitingTime="0.00" waitingCount="0" stopTime="0.00" timeLoss="15.82" rerouteNo="0" devices="tripinfo_f_2.2" vType="DEFAULT_VEHTYPE" speedFactor="1.02" vaporized=""/>
    <tripinfo id="f_7.0" depart="6.00" departLane="193714501#0_0" departPos="5.10" departSpeed="0.00" departDelay="6.00" arrival="56.00" arrivalLane="-192748755#2_0" arrivalPos="103.11" arrivalSpeed="12.00" duration="50.00" routeLength="437.50" waitingTime="12.00" waitingCount="1" stopTime="0.00" timeLoss="25.21" rerouteNo="0" devices="tripinfo_f_7.0" vType="DEFAULT_VEHTYPE" speedFactor="0.89" vaporized=""/>
    <tripinfo id="f_3.2" depart="27.00" departLane="193714501#0_0" departPos="5.10" departSpeed="0.00" departDelay="6.43" arrival="56.00" arrivalLane="422972291_1" arrivalPos="44.85" arrivalSpeed="20.23" duration="29.00" routeLength="394.76" waitingTime="0.00" waitingCount="0" stopTime="0.00" timeLoss="14.84" rerouteNo="0" devices="tripinfo_f_3.2" vType="DEFAULT_VEHTYPE" speedFactor="1.01" vaporized=""/>
    <tripinfo id="f_8.0" depart="9.00" departLane="193714501#0_0" departPos="5.10" departSpeed="0.00" departDelay="9.00" arrival="57.00" arrivalLane="192748767#0_0" arrivalPos="97.24" arrivalSpeed="12.99" duration="48.00" routeLength="433.67" waitingTime="11.00" waitingCount="1" stopTime="0.00" timeLoss="26.28" rerouteNo="0" devices="tripinfo_f_8.0" vType="DEFAULT_VEHTYPE" speedFactor="0.94" vaporized=""/>
    <tripinfo id="f_0.0" depart="0.00" departLane="-406769344#2_0" departPos="5.10" departSpeed="0.00" departDelay="0.00" arrival="59.00" arrivalLane="192748775_0" arrivalPos="327.83" arrivalSpeed="28.73" duration="59.00" routeLength="578.61" waitingTime="18.00" waitingCount="1" stopTime="0.00" timeLoss="31.86" rerouteNo="0" devices="tripinfo_f_0.0" vType="DEFAULT_VEHTYPE" speedFactor="1.06" vaporized=""/>
    <tripinfo id="f_2.3" depart="36.00" departLane="193714501#0_0" departPos="5.10" departSpeed="0.00" departDelay="5.14" arrival="60.00" arrivalLane="422972291_1" arrivalPos="44.85" arrivalSpeed="25.21" duration="24.00" routeLength="394.76" waitingTime="0.00" waitingCount="0" stopTime="0.00" timeLoss="8.02" rerouteNo="0" devices="tripinfo_f_2.3" vType="DEFAULT_VEHTYPE" speedFactor="0.93" vaporized=""/>
    <tripinfo id="f_7.1" depart="18.00" departLane="193714501#0_0" departPos="5.10" departSpeed="0.00" departDelay="7.71" arrival="61.00" arrivalLane="-192748755#2_0" arrivalPos="103.11" arrivalSpeed="11.79" duration="43.00" routeLength="437.50" waitingTime="2.00" waitingCount="1" stopTime="0.00" timeLoss="17.90" rerouteNo="0" devices="tripinfo_f_7.1" vType="DEFAULT_VEHTYPE" speedFactor="0.88" vaporized=""/>
    <tripinfo id="f_8.1" depart="21.00" departLane="193714501#0_0" departPos="5.10" departSpeed="0.00" departDelay="10.71" arrival="61.00" arrivalLane="192748767#0_0" arrivalPos="97.24" arrivalSpeed="12.28" duration="40.00" routeLength="433.67" waitingTime="1.00" waitingCount="1" stopTime="0.00" timeLoss="18.67" rerouteNo="0" devices="tripinfo_f_8.1" vType="DEFAULT_VEHTYPE" speedFactor="0.94" vaporized=""/>
    <tripinfo id="f_3.3" depart="39.00" departLane="193714501#0_0" departPos="5.10" departSpeed="0.00" departDelay="8.14" arrival="61.00" arrivalLane="422972291_0" arrivalPos="44.85" arrivalSpeed="28.80" duration="22.00" routeLength="394.76" waitingTime="0.00" waitingCount="0" stopTime="0.00" timeLoss="9.90" rerouteNo="0" devices="tripinfo_f_3.3" vType="DEFAULT_VEHTYPE" speedFactor="1.18" vaporized=""/>
    <tripinfo id="f_0.1" depart="11.00" departLane="-406769344#2_0" departPos="5.10" departSpeed="0.00" departDelay="0.71" arrival="63.00" arrivalLane="192748775_0" arrivalPos="327.83" arrivalSpeed="23.76" duration="52.00" routeLength="578.61" waitingTime="7.00" waitingCount="1" stopTime="0.00" timeLoss="18.03" rerouteNo="0" devices="tripinfo_f_0.1" vType="DEFAULT_VEHTYPE" speedFactor="0.86" vaporized=""/>
    <tripinfo id="f_0.2" depart="21.00" departLane="-406769344#2_0" departPos="5.10" departSpeed="0.00" departDelay="0.43" arrival="64.00" arrivalLane="192748775_0" arrivalPos="327.83" arrivalSpeed="24.37" duration="43.00" routeLength="578.61" waitingTime="1.00" waitingCount="1" stopTime="0.00" timeLoss="12.20" rerouteNo="0" devices="tripinfo_f_0.2" vType="DEFAULT_VEHTYPE" speedFactor="0.94" vaporized=""/>
    <tripinfo id="f_7.2" depart="30.00" departLane="193714501#0_0" departPos="5.10" departSpeed="0.00" departDelay="9.43" arrival="66.00" arrivalLane="-192748755#2_0" arrivalPos="103.11" arrivalSpeed="11.74" duration="36.00" routeLength="437.50" waitingTime="0.00" waitingCount="0" stopTime="0.00" timeLoss="10.70" rerouteNo="0" devices="tripinfo_f_7.2" vType="DEFAULT_VEHTYPE" speedFactor="0.87" vaporized=""/>
    <tripinfo id="f_8.2" depart="33.00" departLane="193714501#0_0" departPos="5.10" departSpeed="0.00" departDelay="12.43" arrival="66.00" arrivalLane="192748767#0_0" arrivalPos="97.24" arrivalSpeed="12.71" duration="33.00" routeLength="433.67" waitingTime="0.00" waitingCount="0" stopTime="0.00" timeLoss="10.82" rerouteNo="0" devices="tripinfo_f_8.2" vType="DEFAULT_VEHTYPE" speedFactor="0.92" vaporized=""/>
    <tripinfo id="f_0.3" depart="31.00" departLane="-406769344#2_0" departPos="5.10" departSpeed="0.00" departDelay="0.14" arrival="67.00" arrivalLane="192748775_0" arrivalPos="327.83" arrivalSpeed="26.14" duration="36.00" routeLength="578.61" waitingTime="0.00" waitingCount="0" stopTime="0.00" timeLoss="5.24" rerouteNo="0" devices="tripinfo_f_0.3" vType="DEFAULT_VEHTYPE" speedFactor="0.95" vaporized=""/>
    <tripinfo id="f_2.4" depart="47.00" departLane="193714501#0_0" departPos="5.10" departSpeed="0.00" departDelay="5.86" arrival="70.00" arrivalLane="422972291_0" arrivalPos="44.85" arrivalSpeed="29.76" duration="23.00" routeLength="394.76" waitingTime="0.00" waitingCount="0" stopTime="0.00" timeLoss="9.83" rerouteNo="0" devices="tripinfo_f_2.4" vType="DEFAULT_VEHTYPE" speedFactor="1.10" vaporized=""/>
    <tripinfo id="f_7.3" depart="42.00" departLane="193714501#0_0" departPos="5.10" departSpeed="0.00" departDelay="11.14" arrival="73.00" arrivalLane="-192748755#2_0" arrivalPos="103.11" arrivalSpeed="12.72" duration="31.00" routeLength="437.50" waitingTime="0.00" waitingCount="0" stopTime="0.00" timeLoss="8.43" rerouteNo="0" devices="tripinfo_f_7.3" vType="DEFAULT_VEHTYPE" speedFactor="0.99" vaporized=""/>
    <tripinfo id="f_8.3" depart="44.00" departLane="193714501#0_0" departPos="5.10" departSpeed="0.00" departDelay="13.14" arrival="74.00" arrivalLane="192748767#0_0" arrivalPos="97.24" arrivalSpeed="13.99" duration="30.00" routeLength="433.67" waitingTime="0.00" waitingCount="0" stopTime="0.00" timeLoss="9.61" rerouteNo="0" devices="tripinfo_f_8.3" vType="DEFAULT_VEHTYPE" speedFactor="1.02" vaporized=""/>
    <tripinfo id="f_3.4" depart="50.00" departLane="193714501#0_0" departPos="5.10" departSpeed="0.00" departDelay="8.86" arrival="74.00" arrivalLane="422972291_0" arrivalPos="44.85" arrivalSpeed="24.51" duration="24.00" routeLength="394.76" waitingTime="0.00" waitingCount="0" stopTime="0.00" timeLoss="7.54" rerouteNo="0" devices="tripinfo_f_3.4" vType="DEFAULT_VEHTYPE" speedFactor="0.90" vaporized=""/>
    <tripinfo id="f_0.4" depart="42.00" departLane="-406769344#2_0" departPos="5.10" departSpeed="0.00" departDelay="0.86" arrival="77.00" arrivalLane="192748775_0" arrivalPos="327.83" arrivalSpeed="26.95" duration="35.00" routeLength="578.61" waitingTime="0.00" waitingCount="0" stopTime="0.00" timeLoss="4.90" rerouteNo="0" devices="tripinfo_f_0.4" vType="DEFAULT_VEHTYPE" speedFactor="0.97" vaporized=""/>
    <tripinfo id="f_6.2" depart="26.00" departLane="192748755#0_0" departPos="5.10" departSpeed="0.00" departDelay="5.43" arrival="83.00" arrivalLane="422972291_0" arrivalPos="44.85" arrivalSpeed="17.44" duration="57.00" routeLength="188.57" waitingTime="34.00" waitingCount="1" stopTime="0.00" timeLoss="43.88" rerouteNo="0" devices="tripinfo_f_6.2" vType="DEFAULT_VEHTYPE" speedFactor="0.83" vaporized=""/>
    <tripinfo id="f_0.5" depart="52.00" departLane="-406769344#2_0" departPos="5.10" departSpeed="0.00" departDelay="0.57" arrival="85.00" arrivalLane="192748775_0" arrivalPos="327.83" arrivalSpeed="29.70" duration="33.00" routeLength="578.61" waitingTime="0.00" waitingCount="0" stopTime="0.00" timeLoss="5.87" rerouteNo="0" devices="tripinfo_f_0.5" vType="DEFAULT_VEHTYPE" speedFactor="1.09" vaporized=""/>
    <tripinfo id="f_5.3" depart="33.00" departLane="192748755#0_0" departPos="5.10" departSpeed="0.00" departDelay="2.14" arrival="88.00" arrivalLane="192748767#0_0" arrivalPos="97.24" arrivalSpeed="13.90" duration="55.00" routeLength="208.43" waitingTime="30.00" waitingCount="1" stopTime="0.00" timeLoss="39.12" rerouteNo="0" devices="tripinfo_f_5.3" vType="DEFAULT_VEHTYPE" speedFactor="1.01" vaporized=""/>
    <tripinfo id="f_6.3" depart="36.00" departLane="192748755#0_0" departPos="5.10" departSpeed="0.00" departDelay="5.14" arrival="88.00" arrivalLane="422972291_0" arrivalPos="44.85" arrivalSpeed="19.95" duration="52.00" routeLength="188.57" waitingTime="28.00" waitingCount="1" stopTime="0.00" timeLoss="42.31" rerouteNo="0" devices="tripinfo_f_6.3" vType="DEFAULT_VEHTYPE" speedFactor="1.17" vaporized=""/>
    <tripinfo id="f_1.0" depart="3.00" departLane="-406769344#2_0" departPos="5.10" departSpeed="0.00" departDelay="3.00" arrival="90.00" arrivalLane="-192748755#2_1" arrivalPos="103.11" arrivalSpeed="12.49" duration="87.00" routeLength="363.38" waitingTime="48.00" waitingCount="1" stopTime="0.00" timeLoss="58.49" rerouteNo="0" devices="tripinfo_f_1.0" vType="DEFAULT_VEHTYPE" speedFactor="0.94" vaporized=""/>
    <tripinfo id="f_1.1" depart="14.00" departLane="-406769344#2_0" departPos="5.10" departSpeed="0.00" departDelay="3.71" arrival="91.00" arrivalLane="-192748755#2_1" arrivalPos="103.11" arrivalSpeed="14.89" duration="77.00" routeLength="363.38" waitingTime="40.00" waitingCount="1" stopTime="0.00" timeLoss="52.99" rerouteNo="0" devices="tripinfo_f_1.1" vType="DEFAULT_VEHTYPE" speedFactor="1.09" vaporized=""/>
    <tripinfo id="f_1.2" depart="24.00" departLane="-406769344#2_0" departPos="5.10" departSpeed="0.00" departDelay="3.43" arrival="93.00" arrivalLane="-192748755#2_1" arrivalPos="103.11" arrivalSpeed="15.13" duration="69.00" routeLength="363.38" waitingTime="34.00" waitingCount="1" stopTime="0.00" timeLoss="46.08" rerouteNo="0" devices="tripinfo_f_1.2" vType="DEFAULT_VEHTYPE" speedFactor="1.16" vaporized=""/>
    <tripinfo id="f_5.4" depart="44.00" departLane="192748755#0_0" departPos="5.10" departSpeed="0.00" departDelay="2.86" arrival="93.00" arrivalLane="192748767#0_0" arrivalPos="97.24" arrivalSpeed="12.41" duration="49.00" routeLength="208.43" waitingTime="21.00" waitingCount="1" stopTime="0.00" timeLoss="32.04" rerouteNo="0" devices="tripinfo_f_5.4" vType="DEFAULT_VEHTYPE" speedFactor="0.96" vaporized=""/>
    <tripinfo id="f_1.3" depart="34.00" departLane="-406769344#2_0" departPos="5.10" departSpeed="0.00" departDelay="3.14" arrival="95.00" arrivalLane="-192748755#2_1" arrivalPos="103.11" arrivalSpeed="15.44" duration="61.00" routeLength="363.38" waitingTime="24.00" waitingCount="1" stopTime="0.00" timeLoss="37.23" rerouteNo="0" devices="tripinfo_f_1.3" vType="DEFAULT_VEHTYPE" speedFactor="1.13" vaporized=""/>
    <tripinfo id="f_1.4" depart="44.00" departLane="-406769344#2_0" departPos="5.10" departSpeed="0.00" departDelay="2.86" arrival="96.00" arrivalLane="-192748755#2_1" arrivalPos="103.11" arrivalSpeed="15.13" duration="52.00" routeLength="363.38" waitingTime="15.00" waitingCount="1" stopTime="0.00" timeLoss="29.82" rerouteNo="0" devices="tripinfo_f_1.4" vType="DEFAULT_VEHTYPE" speedFactor="1.18" vaporized=""/>
    <tripinfo id="f_0.6" depart="62.00" departLane="-406769344#2_0" departPos="5.10" departSpeed="0.00" departDelay="0.28" arrival="97.00" arrivalLane="192748775_0" arrivalPos="327.83" arrivalSpeed="26.81" duration="35.00" routeLength="578.61" waitingTime="0.00" waitingCount="0" stopTime="0.00" timeLoss="5.67" rerouteNo="0" devices="tripinfo_f_0.6" vType="DEFAULT_VEHTYPE" speedFactor="1.00" vaporized=""/>
    <tripinfo id="f_2.5" depart="60.00" departLane="193714501#0_0" departPos="5.10" departSpeed="0.00" departDelay="8.57" arrival="99.00" arrivalLane="422972291_1" arrivalPos="44.85" arrivalSpeed="20.20" duration="39.00" routeLength="394.76" waitingTime="5.00" waitingCount="1" stopTime="0.00" timeLoss="22.54" rerouteNo="0" devices="tripinfo_f_2.5" vType="DEFAULT_VEHTYPE" speedFactor="0.90" vaporized=""/>
    <tripinfo id="f_3.5" depart="63.00" departLane="193714501#0_0" departPos="5.10" departSpeed="0.00" departDelay="11.57" arrival="101.00" arrivalLane="422972291_1" arrivalPos="44.85" arrivalSpeed="20.05" duration="38.00" routeLength="394.76" waitingTime="5.00" waitingCount="1" stopTime="0.00" timeLoss="21.23" rerouteNo="0" devices="tripinfo_f_3.5" vType="DEFAULT_VEHTYPE" speedFactor="0.88" vaporized=""/>
    <tripinfo id="f_2.6" depart="72.00" departLane="193714501#0_0" departPos="5.10" departSpeed="0.00" departDelay="10.28" arrival="102.00" arrivalLane="422972291_1" arrivalPos="44.85" arrivalSpeed="18.94" duration="30.00" routeLength="394.76" waitingTime="0.00" waitingCount="0" stopTime="0.00" timeLoss="14.13" rerouteNo="0" devices="tripinfo_f_2.6" vType="DEFAULT_VEHTYPE" speedFactor="0.90" vaporized=""/>
    <tripinfo id="f_7.4" depart="54.00" departLane="193714501#0_0" departPos="5.10" departSpeed="0.00" departDelay="12.86" arrival="103.00" arrivalLane="-192748755#2_0" arrivalPos="103.11" arrivalSpeed="13.90" duration="49.00" routeLength="437.50" waitingTime="14.00" waitingCount="1" stopTime="0.00" timeLoss="27.94" rerouteNo="0" devices="tripinfo_f_7.4" vType="DEFAULT_VEHTYPE" speedFactor="1.04" vaporized=""/>
    <tripinfo id="f_8.4" depart="57.00" departLane="193714501#0_0" departPos="5.10" departSpeed="0.00" departDelay="15.86" arrival="104.00" arrivalLane="192748767#0_0" arrivalPos="97.24" arrivalSpeed="13.60" duration="47.00" routeLength="433.67" waitingTime="13.00" waitingCount="1" stopTime="0.00" timeLoss="27.95" rerouteNo="0" devices="tripinfo_f_8.4" vType="DEFAULT_VEHTYPE" speedFactor="1.04" vaporized=""/>
    <tripinfo id="f_3.6" depart="75.00" departLane="193714501#0_0" departPos="5.10" departSpeed="0.00" departDelay="13.28" arrival="104.00" arrivalLane="422972291_1" arrivalPos="44.85" arrivalSpeed="20.55" duration="29.00" routeLength="394.76" waitingTime="0.00" waitingCount="0" stopTime="0.00" timeLoss="16.29" rerouteNo="0" devices="tripinfo_f_3.6" vType="DEFAULT_VEHTYPE" speedFactor="1.14" vaporized=""/>
    <tripinfo id="f_7.5" depart="66.00" departLane="193714501#0_0" departPos="5.10" departSpeed="0.00" departDelay="14.57" arrival="107.00" arrivalLane="-192748755#2_0" arrivalPos="103.11" arrivalSpeed="13.85" duration="41.00" routeLength="437.50" waitingTime="4.00" waitingCount="1" stopTime="0.00" timeLoss="19.76" rerouteNo="0" devices="tripinfo_f_7.5" vType="DEFAULT_VEHTYPE" speedFactor="1.02" vaporized=""/>
    <tripinfo id="f_8.5" depart="69.00" departLane="193714501#0_0" departPos="5.10" departSpeed="0.00" departDelay="17.57" arrival="108.00" arrivalLane="192748767#0_0" arrivalPos="97.24" arrivalSpeed="14.00" duration="39.00" routeLength="433.67" waitingTime="1.00" waitingCount="1" stopTime="0.00" timeLoss="20.29" rerouteNo="0" devices="tripinfo_f_8.5" vType="DEFAULT_VEHTYPE" speedFactor="1.10" vaporized=""/>
    <tripinfo id="f_0.7" depart="73.00" departLane="-406769344#2_0" departPos="5.10" departSpeed="0.00" departDelay="1.00" arrival="108.00" arrivalLane="192748775_0" arrivalPos="327.83" arrivalSpeed="26.83" duration="35.00" routeLength="578.61" waitingTime="0.00" waitingCount="0" stopTime="0.00" timeLoss="5.44" rerouteNo="0" devices="tripinfo_f_0.7" vType="DEFAULT_VEHTYPE" speedFactor="0.99" vaporized=""/>
    <tripinfo id="f_6.4" depart="47.00" departLane="192748755#0_0" departPos="5.10" departSpeed="0.00" departDelay="5.86" arrival="114.00" arrivalLane="422972291_0" arrivalPos="44.85" arrivalSpeed="17.90" duration="67.00" routeLength="188.57" waitingTime="37.00" waitingCount="2" stopTime="0.00" timeLoss="56.70" rerouteNo="0" devices="tripinfo_f_6.4" vType="DEFAULT_VEHTYPE" speedFactor="1.09" vaporized=""/>
    <tripinfo id="f_6.5" depart="57.00" departLane="192748755#0_0" departPos="5.10" departSpeed="0.00" departDelay="5.57" arrival="116.00" arrivalLane="422972291_0" arrivalPos="44.85" arrivalSpeed="20.23" duration="59.00" routeLength="188.57" waitingTime="29.00" waitingCount="2" stopTime="0.00" timeLoss="49.74" rerouteNo="0" devices="tripinfo_f_6.5" vType="DEFAULT_VEHTYPE" speedFactor="1.17" vaporized=""/>
    <tripinfo id="f_5.5" depart="54.00" departLane="192748755#0_0" departPos="5.10" departSpeed="0.00" departDelay="2.57" arrival="119.00" arrivalLane="192748767#0_0" arrivalPos="97.24" arrivalSpeed="11.41" duration="65.00" routeLength="208.43" waitingTime="32.00" waitingCount="2" stopTime="0.00" timeLoss="46.17" rerouteNo="0" devices="tripinfo_f_5.5" vType="DEFAULT_VEHTYPE" speedFactor="0.85" vaporized=""/>
    <tripinfo id="f_0.8" depart="83.00" departLane="-406769344#2_0" departPos="5.10" departSpeed="0.00" departDelay="0.71" arrival="119.00" arrivalLane="192748775_0" arrivalPos="327.83" arrivalSpeed="25.14" duration="36.00" routeLength="578.61" waitingTime="0.00" waitingCount="0" stopTime="0.00" timeLoss="5.13" rerouteNo="0" devices="tripinfo_f_0.8" vType="DEFAULT_VEHTYPE" speedFactor="0.94" vaporized=""/>
    <tripinfo id="f_1.5" depart="55.00" departLane="-406769344#2_0" departPos="5.10" departSpeed="0.00" departDelay="3.57" arrival="120.00" arrivalLane="-192748755#2_1" arrivalPos="103.11" arrivalSpeed="13.76" duration="65.00" routeLength="363.38" waitingTime="22.00" waitingCount="2" stopTime="0.00" timeLoss="38.19" rerouteNo="0" devices="tripinfo_f_1.5" vType="DEFAULT_VEHTYPE" speedFactor="1.00" vaporized=""/>
    <tripinfo id="f_6.6" depart="67.00" departLane="192748755#0_0" departPos="5.10" departSpeed="0.00" departDelay="5.28" arrival="121.00" arrivalLane="422972291_0" arrivalPos="44.85" arrivalSpeed="21.57" duration="54.00" routeLength="188.57" waitingTime="21.00" waitingCount="2" stopTime="0.00" timeLoss="43.58" rerouteNo="0" devices="tripinfo_f_6.6" vType="DEFAULT_VEHTYPE" speedFactor="1.08" vaporized=""/>
    <tripinfo id="f_5.6" depart="64.00" departLane="192748755#0_0" departPos="5.10" departSpeed="0.00" departDelay="2.28" arrival="122.00" arrivalLane="192748767#0_0" arrivalPos="97.24" arrivalSpeed="12.67" duration="58.00" routeLength="208.43" waitingTime="24.00" waitingCount="2" stopTime="0.00" timeLoss="41.59" rerouteNo="0" devices="tripinfo_f_5.6" vType="DEFAULT_VEHTYPE" speedFactor="0.97" vaporized=""/>
    <tripinfo id="f_1.6" depart="65.00" departLane="-406769344#2_0" departPos="5.10" departSpeed="0.00" departDelay="3.28" arrival="123.00" arrivalLane="-192748755#2_1" arrivalPos="103.11" arrivalSpeed="12.41" duration="58.00" routeLength="363.38" waitingTime="15.00" waitingCount="1" stopTime="0.00" timeLoss="30.85" rerouteNo="0" devices="tripinfo_f_1.6" vType="DEFAULT_VEHTYPE" speedFactor="1.00" vaporized=""/>
    <tripinfo id="f_6.7" depart="78.00" departLane="192748755#0_0" departPos="5.10" departSpeed="0.00" departDelay="6.00" arrival="124.00" arrivalLane="422972291_0" arrivalPos="44.85" arrivalSpeed="22.14" duration="46.00" routeLength="188.57" waitingTime="13.00" waitingCount="1" stopTime="0.00" timeLoss="35.30" rerouteNo="0" devices="tripinfo_f_6.7" vType="DEFAULT_VEHTYPE" speedFactor="1.02" vaporized=""/>
    <tripinfo id="f_1.7" depart="76.00" departLane="-406769344#2_0" departPos="5.10" departSpeed="0.00" departDelay="4.00" arrival="125.00" arrivalLane="-192748755#2_1" arrivalPos="103.11" arrivalSpeed="12.14" duration="49.00" routeLength="363.38" waitingTime="10.00" waitingCount="1" stopTime="0.00" timeLoss="20.35" rerouteNo="0" devices="tripinfo_f_1.7" vType="DEFAULT_VEHTYPE" speedFactor="0.94" vaporized=""/>
    <tripinfo id="f_5.7" depart="75.00" departLane="192748755#0_0" departPos="5.10" departSpeed="0.00" departDelay="3.00" arrival="126.00" arrivalLane="192748767#0_0" arrivalPos="97.24" arrivalSpeed="14.33" duration="51.00" routeLength="208.43" waitingTime="14.00" waitingCount="2" stopTime="0.00" timeLoss="35.07" rerouteNo="0" devices="tripinfo_f_5.7" vType="DEFAULT_VEHTYPE" speedFactor="1.04" vaporized=""/>
    <tripinfo id="f_1.8" depart="86.00" departLane="-406769344#2_0" departPos="5.10" departSpeed="0.00" departDelay="3.71" arrival="126.00" arrivalLane="-192748755#2_1" arrivalPos="103.11" arrivalSpeed="13.95" duration="40.00" routeLength="363.38" waitingTime="1.00" waitingCount="1" stopTime="0.00" timeLoss="15.04" rerouteNo="0" devices="tripinfo_f_1.8" vType="DEFAULT_VEHTYPE" speedFactor="1.06" vaporized=""/>
    <tripinfo id="f_0.9" depart="93.00" departLane="-406769344#2_0" departPos="5.10" departSpeed="0.00" departDelay="0.43" arrival="127.00" arrivalLane="192748775_0" arrivalPos="327.83" arrivalSpeed="26.70" duration="34.00" routeLength="578.61" waitingTime="0.00" waitingCount="0" stopTime="0.00" timeLoss="5.02" rerouteNo="0" devices="tripinfo_f_0.9" vType="DEFAULT_VEHTYPE" speedFactor="1.00" vaporized=""/>
    <tripinfo id="f_6.8" depart="87.00" departLane="192748755#0_0" departPos="5.10" departSpeed="0.00" departDelay="4.71" arrival="128.00" arrivalLane="422972291_0" arrivalPos="44.85" arrivalSpeed="21.37" duration="41.00" routeLength="188.57" waitingTime="12.00" waitingCount="1" stopTime="0.00" timeLoss="30.41" rerouteNo="0" devices="tripinfo_f_6.8" vType="DEFAULT_VEHTYPE" speedFactor="1.01" vaporized=""/>
    <tripinfo id="f_1.9" depart="96.00" departLane="-406769344#2_0" departPos="5.10" departSpeed="0.00" departDelay="3.43" arrival="128.00" arrivalLane="-192748755#2_1" arrivalPos="103.11" arrivalSpeed="13.04" duration="32.00" routeLength="363.38" waitingTime="0.00" waitingCount="0" stopTime="0.00" timeLoss="5.91" rerouteNo="0" devices="tripinfo_f_1.9" vType="DEFAULT_VEHTYPE" speedFactor="1.02" vaporized=""/>
    <tripinfo id="f_5.8" depart="84.00" departLane="192748755#0_0" departPos="5.10" departSpeed="0.00" departDelay="1.71" arrival="130.00" arrivalLane="192748767#0_0" arrivalPos="97.24" arrivalSpeed="13.33" duration="46.00" routeLength="208.43" waitingTime="12.00" waitingCount="1" stopTime="0.00" timeLoss="29.50" rerouteNo="0" devices="tripinfo_f_5.8" vType="DEFAULT_VEHTYPE" speedFactor="0.98" vaporized=""/>
    <tripinfo id="f_6.9" depart="99.00" departLane="192748755#0_0" departPos="5.10" departSpeed="0.00" departDelay="6.43" arrival="132.00" arrivalLane="422972291_0" arrivalPos="44.85" arrivalSpeed="21.33" duration="33.00" routeLength="188.57" waitingTime="7.00" waitingCount="1" stopTime="0.00" timeLoss="22.56" rerouteNo="0" devices="tripinfo_f_6.9" vType="DEFAULT_VEHTYPE" speedFactor="1.04" vaporized=""/>
    <tripinfo id="f_5.9" depart="96.00" departLane="192748755#0_0" departPos="5.10" departSpeed="0.00" departDelay="3.43" arrival="134.00" arrivalLane="192748767#0_0" arrivalPos="97.24" arrivalSpeed="13.08" duration="38.00" routeLength="208.43" waitingTime="9.00" waitingCount="1" stopTime="0.00" timeLoss="21.69" rerouteNo="0" devices="tripinfo_f_5.9" vType="DEFAULT_VEHTYPE" speedFactor="1.00" vaporized=""/>
    <tripinfo id="f_6.10" depart="107.00" departLane="192748755#0_0" departPos="5.10" departSpeed="0.00" departDelay="4.14" arrival="136.00" arrivalLane="422972291_0" arrivalPos="44.85" arrivalSpeed="21.54" duration="29.00" routeLength="188.57" waitingTime="6.00" waitingCount="1" stopTime="0.00" timeLoss="18.10" rerouteNo="0" devices="tripinfo_f_6.10" vType="DEFAULT_VEHTYPE" speedFactor="1.01" vaporized=""/>