<?xml version="1.0" encoding="UTF-8"?>

<!-- generated on 2022-07-10 13:11:43 by Eclipse SUMO sumo Version 1.12.0
<configuration xmlns:xsi="http://www.w3.org/2001/XMLSchema-instance" xsi:noNamespaceSchemaLocation="http://sumo.dlr.de/xsd/sumoConfiguration.xsd">

    <input>
        <net-file value="C:\Users\ricca\PycharmProjects\DeepReinforcementLearning_TrafficLight\Simulation\osm.net.xml"/>
        <route-files value="C:\Users\ricca\PycharmProjects\DeepReinforcementLearning_TrafficLight\Simulation\demand.rou.xml"/>
        <additional-files value="C:\Users\ricca\PycharmProjects\DeepReinforcementLearning_TrafficLight\Simulation\detectors.xml"/>
    </input>

    <output>
        <tripinfo-output value="tripinfo.xml"/>
    </output>

    <processing>
        <waiting-time-memory value="10000"/>
    </processing>

    <report>
        <no-warnings value="true"/>
        <duration-log.disable value="true"/>
        <no-step-log value="true"/>
    </report>

    <traci_server>
        <remote-port value="54250"/>
    </traci_server>

</configuration>
-->

<tripinfos xmlns:xsi="http://www.w3.org/2001/XMLSchema-instance" xsi:noNamespaceSchemaLocation="http://sumo.dlr.de/xsd/tripinfo_file.xsd">
    <tripinfo id="f_6.0" depart="6.00" departLane="192748755#0_0" departPos="5.10" departSpeed="0.00" departDelay="6.00" arrival="25.00" arrivalLane="422972291_0" arrivalPos="44.85" arrivalSpeed="20.61" duration="19.00" routeLength="188.57" waitingTime="0.00" waitingCount="0" stopTime="0.00" timeLoss="8.05" rerouteNo="0" devices="tripinfo_f_6.0" vType="DEFAULT_VEHTYPE" speedFactor="1.05" vaporized=""/>
    <tripinfo id="f_5.0" depart="3.00" departLane="192748755#0_0" departPos="5.10" departSpeed="0.00" departDelay="3.00" arrival="26.00" arrivalLane="192748767#0_0" arrivalPos="97.24" arrivalSpeed="10.53" duration="23.00" routeLength="208.43" waitingTime="0.00" waitingCount="0" stopTime="0.00" timeLoss="4.34" rerouteNo="0" devices="tripinfo_f_5.0" vType="DEFAULT_VEHTYPE" speedFactor="0.83" vaporized=""/>
    <tripinfo id="f_5.1" depart="14.00" departLane="192748755#0_0" departPos="5.10" departSpeed="0.00" departDelay="2.00" arrival="35.00" arrivalLane="192748767#0_0" arrivalPos="97.24" arrivalSpeed="13.21" duration="21.00" routeLength="208.43" waitingTime="0.00" waitingCount="0" stopTime="0.00" timeLoss="5.01" rerouteNo="0" devices="tripinfo_f_5.1" vType="DEFAULT_VEHTYPE" speedFactor="0.99" vaporized=""/>
    <tripinfo id="f_4.0" depart="0.00" departLane="192748755#0_0" departPos="5.10" departSpeed="0.00" departDelay="0.00" arrival="36.00" arrivalLane="192748775_1" arrivalPos="327.83" arrivalSpeed="27.51" duration="36.00" routeLength="475.24" waitingTime="1.00" waitingCount="1" stopTime="0.00" timeLoss="13.31" rerouteNo="0" devices="tripinfo_f_4.0" vType="DEFAULT_VEHTYPE" speedFactor="1.03" vaporized=""/>
    <tripinfo id="f_2.0" depart="0.00" departLane="193714501#0_0" departPos="5.10" departSpeed="0.00" departDelay="0.00" arrival="39.00" arrivalLane="422972291_0" arrivalPos="44.85" arrivalSpeed="19.84" duration="39.00" routeLength="394.76" waitingTime="9.00" waitingCount="1" stopTime="0.00" timeLoss="24.62" rerouteNo="0" devices="tripinfo_f_2.0" vType="DEFAULT_VEHTYPE" speedFactor="1.01" vaporized=""/>
    <tripinfo id="f_3.0" depart="3.00" departLane="193714501#0_0" departPos="5.10" departSpeed="0.00" departDelay="3.00" arrival="39.00" arrivalLane="422972291_1" arrivalPos="44.85" arrivalSpeed="19.11" duration="36.00" routeLength="394.76" waitingTime="5.00" waitingCount="1" stopTime="0.00" timeLoss="22.80" rerouteNo="0" devices="tripinfo_f_3.0" vType="DEFAULT_VEHTYPE" speedFactor="1.08" vaporized=""/>
    <tripinfo id="f_4.1" depart="12.00" departLane="192748755#0_0" departPos="5.10" departSpeed="0.00" departDelay="0.00" arrival="40.00" arrivalLane="192748775_1" arrivalPos="327.83" arrivalSpeed="30.74" duration="28.00" routeLength="475.24" waitingTime="0.00" waitingCount="0" stopTime="0.00" timeLoss="7.16" rerouteNo="0" devices="tripinfo_f_4.1" vType="DEFAULT_VEHTYPE" speedFactor="1.12" vaporized=""/>
    <tripinfo id="f_2.1" depart="12.00" departLane="193714501#0_0" departPos="5.10" departSpeed="0.00" departDelay="0.00" arrival="41.00" arrivalLane="422972291_1" arrivalPos="44.85" arrivalSpeed="19.40" duration="29.00" routeLength="394.76" waitingTime="0.00" waitingCount="0" stopTime="0.00" timeLoss="14.91" rerouteNo="0" devices="tripinfo_f_2.1" vType="DEFAULT_VEHTYPE" speedFactor="1.03" vaporized=""/>
    <tripinfo id="f_3.1" depart="15.00" departLane="193714501#0_0" departPos="5.10" departSpeed="0.00" departDelay="3.00" arrival="43.00" arrivalLane="422972291_1" arrivalPos="44.85" arrivalSpeed="21.67" duration="28.00" routeLength="394.76" waitingTime="0.00" waitingCount="0" stopTime="0.00" timeLoss="13.82" rerouteNo="0" devices="tripinfo_f_3.1" vType="DEFAULT_VEHTYPE" speedFactor="1.05" vaporized=""/>
    <tripinfo id="f_7.0" depart="6.00" departLane="193714501#0_0" departPos="5.10" departSpeed="0.00" departDelay="6.00" arrival="47.00" arrivalLane="-192748755#2_0" arrivalPos="103.11" arrivalSpeed="12.18" duration="41.00" routeLength="437.50" waitingTime="3.00" waitingCount="1" stopTime="0.00" timeLoss="16.43" rerouteNo="0" devices="tripinfo_f_7.0" vType="DEFAULT_VEHTYPE" speedFactor="0.89" vaporized=""/>
    <tripinfo id="f_8.0" depart="9.00" departLane="193714501#0_0" departPos="5.10" departSpeed="0.00" departDelay="9.00" arrival="48.00" arrivalLane="192748767#0_0" arrivalPos="97.24" arrivalSpeed="12.17" duration="39.00" routeLength="433.67" waitingTime="2.00" waitingCount="1" stopTime="0.00" timeLoss="17.37" rerouteNo="0" devices="tripinfo_f_8.0" vType="DEFAULT_VEHTYPE" speedFactor="0.94" vaporized=""/>
    <tripinfo id="f_0.0" depart="0.00" departLane="-406769344#2_0" departPos="5.10" departSpeed="0.00" departDelay="0.00" arrival="50.00" arrivalLane="192748775_0" arrivalPos="327.83" arrivalSpeed="28.48" duration="50.00" routeLength="578.61" waitingTime="9.00" waitingCount="1" stopTime="0.00" timeLoss="22.52" rerouteNo="0" devices="tripinfo_f_0.0" vType="DEFAULT_VEHTYPE" speedFactor="1.06" vaporized=""/>
    <tripinfo id="f_0.1" depart="12.00" departLane="-406769344#2_0" departPos="5.10" departSpeed="0.00" departDelay="0.00" arrival="53.00" arrivalLane="192748775_0" arrivalPos="327.83" arrivalSpeed="23.01" duration="41.00" routeLength="578.61" waitingTime="0.00" waitingCount="0" stopTime="0.00" timeLoss="7.42" rerouteNo="0" devices="tripinfo_f_0.1" vType="DEFAULT_VEHTYPE" speedFactor="0.86" vaporized=""/>
    <tripinfo id="f_7.1" depart="18.00" departLane="193714501#0_0" departPos="5.10" departSpeed="0.00" departDelay="6.00" arrival="53.00" arrivalLane="-192748755#2_0" arrivalPos="103.11" arrivalSpeed="11.34" duration="35.00" routeLength="437.50" waitingTime="0.00" waitingCount="0" stopTime="0.00" timeLoss="9.89" rerouteNo="0" devices="tripinfo_f_7.1" vType="DEFAULT_VEHTYPE" speedFactor="0.88" vaporized=""/>
    <tripinfo id="f_6.1" depart="17.00" departLane="192748755#0_0" departPos="5.10" departSpeed="0.00" departDelay="5.00" arrival="55.00" arrivalLane="422972291_0" arrivalPos="44.85" arrivalSpeed="19.05" duration="38.00" routeLength="188.57" waitingTime="17.00" waitingCount="1" stopTime="0.00" timeLoss="26.08" rerouteNo="0" devices="tripinfo_f_6.1" vType="DEFAULT_VEHTYPE" speedFactor="0.93" vaporized=""/>
    <tripinfo id="f_0.2" depart="24.00" departLane="-406769344#2_0" departPos="5.10" departSpeed="0.00" departDelay="0.00" arrival="59.00" arrivalLane="192748775_0" arrivalPos="327.83" arrivalSpeed="25.75" duration="35.00" routeLength="578.61" waitingTime="0.00" waitingCount="0" stopTime="0.00" timeLoss="4.34" rerouteNo="0" devices="tripinfo_f_0.2" vType="DEFAULT_VEHTYPE" speedFactor="0.94" vaporized=""/>
    <tripinfo id="f_6.2" depart="29.00" departLane="192748755#0_0" departPos="5.10" departSpeed="0.00" departDelay="5.00" arrival="59.00" arrivalLane="422972291_0" arrivalPos="44.85" arrivalSpeed="19.60" duration="30.00" routeLength="188.57" waitingTime="8.00" waitingCount="1" stopTime="0.00" timeLoss="16.63" rerouteNo="0" devices="tripinfo_f_6.2" vType="DEFAULT_VEHTYPE" speedFactor="0.83" vaporized=""/>
    <tripinfo id="f_5.2" depart="26.00" departLane="192748755#0_0" departPos="5.10" departSpeed="0.00" departDelay="2.00" arrival="60.00" arrivalLane="192748767#0_0" arrivalPos="97.24" arrivalSpeed="11.56" duration="34.00" routeLength="208.43" waitingTime="9.00" waitingCount="1" stopTime="0.00" timeLoss="16.52" rerouteNo="0" devices="tripinfo_f_5.2" vType="DEFAULT_VEHTYPE" speedFactor="0.89" vaporized=""/>
    <tripinfo id="f_1.0" depart="3.00" departLane="-406769344#2_0" departPos="5.10" departSpeed="0.00" departDelay="3.00" arrival="62.00" arrivalLane="-192748755#2_1" arrivalPos="103.11" arrivalSpeed="13.02" duration="59.00" routeLength="363.38" waitingTime="20.00" waitingCount="1" stopTime="0.00" timeLoss="31.00" rerouteNo="0" devices="tripinfo_f_1.0" vType="DEFAULT_VEHTYPE" speedFactor="0.94" vaporized=""/>
    <tripinfo id="f_1.1" depart="15.00" departLane="-406769344#2_0" departPos="5.10" departSpeed="0.00" departDelay="3.00" arrival="64.00" arrivalLane="-192748755#2_1" arrivalPos="103.11" arrivalSpeed="14.29" duration="49.00" routeLength="363.38" waitingTime="12.00" waitingCount="1" stopTime="0.00" timeLoss="24.58" rerouteNo="0" devices="tripinfo_f_1.1" vType="DEFAULT_VEHTYPE" speedFactor="1.09" vaporized=""/>
    <tripinfo id="f_5.3" depart="38.00" departLane="192748755#0_0" departPos="5.10" departSpeed="0.00" departDelay="2.00" arrival="65.00" arrivalLane="192748767#0_0" arrivalPos="97.24" arrivalSpeed="13.52" duration="27.00" routeLength="208.43" waitingTime="0.00" waitingCount="0" stopTime="0.00" timeLoss="10.50" rerouteNo="0" devices="tripinfo_f_5.3" vType="DEFAULT_VEHTYPE" speedFactor="1.01" vaporized=""/>
    <tripinfo id="f_1.2" depart="27.00" departLane="-406769344#2_0" departPos="5.10" departSpeed="0.00" departDelay="3.00" arrival="66.00" arrivalLane="-192748755#2_1" arrivalPos="103.11" arrivalSpeed="14.93" duration="39.00" routeLength="363.38" waitingTime="2.00" waitingCount="1" stopTime="0.00" timeLoss="15.66" rerouteNo="0" devices="tripinfo_f_1.2" vType="DEFAULT_VEHTYPE" speedFactor="1.16" vaporized=""/>
    <tripinfo id="f_1.3" depart="39.00" departLane="-406769344#2_0" departPos="5.10" departSpeed="0.00" departDelay="3.00" arrival="68.00" arrivalLane="-192748755#2_1" arrivalPos="103.11" arrivalSpeed="14.89" duration="29.00" routeLength="363.38" waitingTime="0.00" waitingCount="0" stopTime="0.00" timeLoss="5.00" rerouteNo="0" devices="tripinfo_f_1.3" vType="DEFAULT_VEHTYPE" speedFactor="1.13" vaporized=""/>
    <tripinfo id="f_2.2" depart="24.00" departLane="193714501#0_0" departPos="5.10" departSpeed="0.00" departDelay="0.00" arrival="72.00" arrivalLane="422972291_1" arrivalPos="44.85" arrivalSpeed="19.53" duration="48.00" routeLength="394.76" waitingTime="15.00" waitingCount="1" stopTime="0.00" timeLoss="33.48" rerouteNo="0" devices="tripinfo_f_2.2" vType="DEFAULT_VEHTYPE" speedFactor="1.02" vaporized=""/>
    <tripinfo id="f_0.3" depart="36.00" departLane="-406769344#2_0" departPos="5.10" departSpeed="0.00" departDelay="0.00" arrival="72.00" arrivalLane="192748775_0" arrivalPos="327.83" arrivalSpeed="25.13" duration="36.00" routeLength="578.61" waitingTime="0.00" waitingCount="0" stopTime="0.00" timeLoss="5.21" rerouteNo="0" devices="tripinfo_f_0.3" vType="DEFAULT_VEHTYPE" speedFactor="0.95" vaporized=""/>
    <tripinfo id="f_3.2" depart="27.00" departLane="193714501#0_0" departPos="5.10" departSpeed="0.00" departDelay="3.00" arrival="73.00" arrivalLane="422972291_0" arrivalPos="44.85" arrivalSpeed="19.38" duration="46.00" routeLength="394.76" waitingTime="14.00" waitingCount="1" stopTime="0.00" timeLoss="31.62" rerouteNo="0" devices="tripinfo_f_3.2" vType="DEFAULT_VEHTYPE" speedFactor="1.01" vaporized=""/>
    <tripinfo id="f_2.3" depart="37.00" departLane="193714501#0_0" departPos="5.10" departSpeed="0.00" departDelay="1.00" arrival="74.00" arrivalLane="422972291_1" arrivalPos="44.85" arrivalSpeed="19.63" duration="37.00" routeLength="394.76" waitingTime="4.00" waitingCount="1" stopTime="0.00" timeLoss="21.11" rerouteNo="0" devices="tripinfo_f_2.3" vType="DEFAULT_VEHTYPE" speedFactor="0.93" vaporized=""/>
    <tripinfo id="f_3.3" depart="40.00" departLane="193714501#0_0" departPos="5.10" departSpeed="0.00" departDelay="4.00" arrival="75.00" arrivalLane="422972291_1" arrivalPos="44.85" arrivalSpeed="20.61" duration="35.00" routeLength="394.76" waitingTime="1.00" waitingCount="1" stopTime="0.00" timeLoss="22.78" rerouteNo="0" devices="tripinfo_f_3.3" vType="DEFAULT_VEHTYPE" speedFactor="1.18" vaporized=""/>
    <tripinfo id="f_8.1" depart="21.00" departLane="193714501#0_0" departPos="5.10" departSpeed="0.00" departDelay="9.00" arrival="76.00" arrivalLane="192748767#0_0" arrivalPos="97.24" arrivalSpeed="13.05" duration="55.00" routeLength="433.67" waitingTime="18.00" waitingCount="1" stopTime="0.00" timeLoss="33.36" rerouteNo="0" devices="tripinfo_f_8.1" vType="DEFAULT_VEHTYPE" speedFactor="0.94" vaporized=""/>
    <tripinfo id="f_2.4" depart="49.00" departLane="193714501#0_0" departPos="5.10" departSpeed="0.00" departDelay="1.00" arrival="77.00" arrivalLane="422972291_1" arrivalPos="44.85" arrivalSpeed="22.33" duration="28.00" routeLength="394.76" waitingTime="0.00" waitingCount="0" stopTime="0.00" timeLoss="14.57" rerouteNo="0" devices="tripinfo_f_2.4" vType="DEFAULT_VEHTYPE" speedFactor="1.10" vaporized=""/>
    <tripinfo id="f_3.4" depart="52.00" departLane="193714501#0_0" departPos="5.10" departSpeed="0.00" departDelay="4.00" arrival="78.00" arrivalLane="422972291_1" arrivalPos="44.85" arrivalSpeed="22.20" duration="26.00" routeLength="394.76" waitingTime="0.00" waitingCount="0" stopTime="0.00" timeLoss="10.04" rerouteNo="0" devices="tripinfo_f_3.4" vType="DEFAULT_VEHTYPE" speedFactor="0.90" vaporized=""/>
    <tripinfo id="f_7.2" depart="30.00" departLane="193714501#0_0" departPos="5.10" departSpeed="0.00" departDelay="6.00" arrival="82.00" arrivalLane="-192748755#2_0" arrivalPos="103.11" arrivalSpeed="10.91" duration="52.00" routeLength="437.50" waitingTime="12.00" waitingCount="1" stopTime="0.00" timeLoss="26.83" rerouteNo="0" devices="tripinfo_f_7.2" vType="DEFAULT_VEHTYPE" speedFactor="0.87" vaporized=""/>
    <tripinfo id="f_8.2" depart="33.00" departLane="193714501#0_0" departPos="5.10" departSpeed="0.00" departDelay="9.00" arrival="82.00" arrivalLane="192748767#0_0" arrivalPos="97.24" arrivalSpeed="11.84" duration="49.00" routeLength="433.67" waitingTime="11.00" waitingCount="1" stopTime="0.00" timeLoss="26.92" rerouteNo="0" devices="tripinfo_f_8.2" vType="DEFAULT_VEHTYPE" speedFactor="0.92" vaporized=""/>
    <tripinfo id="f_0.4" depart="48.00" departLane="-406769344#2_0" departPos="5.10" departSpeed="0.00" departDelay="0.00" arrival="83.00" arrivalLane="192748775_0" arrivalPos="327.83" arrivalSpeed="26.47" duration="35.00" routeLength="578.61" waitingTime="0.00" waitingCount="0" stopTime="0.00" timeLoss="5.00" rerouteNo="0" devices="tripinfo_f_0.4" vType="DEFAULT_VEHTYPE" speedFactor="0.97" vaporized=""/>
    <tripinfo id="f_7.3" depart="43.00" departLane="193714501#0_0" departPos="5.10" departSpeed="0.00" departDelay="7.00" arrival="84.00" arrivalLane="-192748755#2_0" arrivalPos="103.11" arrivalSpeed="13.40" duration="41.00" routeLength="437.50" waitingTime="4.00" waitingCount="1" stopTime="0.00" timeLoss="19.03" rerouteNo="0" devices="tripinfo_f_7.3" vType="DEFAULT_VEHTYPE" speedFactor="0.99" vaporized=""/>
    <tripinfo id="f_6.3" depart="41.00" departLane="192748755#0_0" departPos="5.10" departSpeed="0.00" departDelay="5.00" arrival="88.00" arrivalLane="422972291_0" arrivalPos="44.85" arrivalSpeed="18.97" duration="47.00" routeLength="188.57" waitingTime="20.00" waitingCount="1" stopTime="0.00" timeLoss="37.31" rerouteNo="0" devices="tripinfo_f_6.3" vType="DEFAULT_VEHTYPE" speedFactor="1.17" vaporized=""/>
    <tripinfo id="f_6.4" depart="53.00" departLane="192748755#0_0" departPos="5.10" departSpeed="0.00" departDelay="5.00" arrival="91.00" arrivalLane="422972291_0" arrivalPos="44.85" arrivalSpeed="19.39" duration="38.00" routeLength="188.57" waitingTime="16.00" waitingCount="1" stopTime="0.00" timeLoss="27.90" rerouteNo="0" devices="tripinfo_f_6.4" vType="DEFAULT_VEHTYPE" speedFactor="1.09" vaporized=""/>
    <tripinfo id="f_5.4" depart="50.00" departLane="192748755#0_0" departPos="5.10" departSpeed="0.00" departDelay="2.00" arrival="92.00" arrivalLane="192748767#0_0" arrivalPos="97.24" arrivalSpeed="13.23" duration="42.00" routeLength="208.43" waitingTime="16.00" waitingCount="1" stopTime="0.00" timeLoss="25.17" rerouteNo="0" devices="tripinfo_f_5.4" vType="DEFAULT_VEHTYPE" speedFactor="0.96" vaporized=""/>
</tripinfos>
