<?xml version="1.0" encoding="UTF-8"?>

<!-- generated on 2024-09-21 14:53:38 by Eclipse SUMO sumo Version 1.19.0
<configuration xmlns:xsi="http://www.w3.org/2001/XMLSchema-instance" xsi:noNamespaceSchemaLocation="http://sumo.dlr.de/xsd/sumoConfiguration.xsd">

    <input>
        <net-file value="./Simulation/osm.net.xml"/>
        <route-files value="./Simulation/demand.rou.xml"/>
        <additional-files value="./Simulation/detectors.xml"/>
    </input>

    <output>
        <tripinfo-output value="tripinfo.xml"/>
    </output>

    <processing>
        <waiting-time-memory value="2000"/>
    </processing>

    <report>
        <no-warnings value="true"/>
        <duration-log.disable value="true"/>
        <no-step-log value="true"/>
    </report>

    <traci_server>
        <remote-port value="62729"/>
    </traci_server>

    <gui_only>
        <gui-settings-file value="./Simulation/viewsettings.xml"/>
        <quit-on-end value="true"/>
        <start value="false"/>
    </gui_only>

</configuration>
-->

<tripinfos xmlns:xsi="http://www.w3.org/2001/XMLSchema-instance" xsi:noNamespaceSchemaLocation="http://sumo.dlr.de/xsd/tripinfo_file.xsd">
    <tripinfo id="f_6.0" depart="6.00" departLane="192748755#0_0" departPos="5.10" departSpeed="0.00" departDelay="6.00" arrival="24.00" arrivalLane="422972291_0" arrivalPos="44.85" arrivalSpeed="20.11" duration="18.00" routeLength="188.57" waitingTime="0.00" waitingCount="0" stopTime="0.00" timeLoss="7.42" rerouteNo="0" devices="tripinfo_f_6.0" vType="type1" speedFactor="1.05" vaporized=""/>
    <tripinfo id="f_5.0" depart="3.00" departLane="192748755#0_0" departPos="5.10" departSpeed="0.00" departDelay="3.00" arrival="26.00" arrivalLane="192748767#0_0" arrivalPos="97.24" arrivalSpeed="10.53" duration="23.00" routeLength="208.43" waitingTime="0.00" waitingCount="0" stopTime="0.00" timeLoss="4.17" rerouteNo="0" devices="tripinfo_f_5.0" vType="type1" speedFactor="0.83" vaporized=""/>
    <tripinfo id="f_4.0" depart="0.00" departLane="192748755#0_0" departPos="5.10" departSpeed="0.00" departDelay="0.00" arrival="29.00" arrivalLane="192748775_1" arrivalPos="327.83" arrivalSpeed="28.28" duration="29.00" routeLength="475.24" waitingTime="0.00" waitingCount="0" stopTime="0.00" timeLoss="6.67" rerouteNo="0" devices="tripinfo_f_4.0" vType="type1" speedFactor="1.03" vaporized=""/>
    <tripinfo id="f_6.1" depart="15.00" departLane="192748755#0_0" departPos="5.10" departSpeed="0.00" departDelay="7.00" arrival="31.00" arrivalLane="422972291_0" arrivalPos="44.85" arrivalSpeed="22.27" duration="16.00" routeLength="188.57" waitingTime="0.00" waitingCount="0" stopTime="0.00" timeLoss="4.48" rerouteNo="0" devices="tripinfo_f_6.1" vType="type1" speedFactor="0.93" vaporized=""/>
    <tripinfo id="f_5.1" depart="12.00" departLane="192748755#0_0" departPos="5.10" departSpeed="0.00" departDelay="4.00" arrival="33.00" arrivalLane="192748767#0_0" arrivalPos="97.24" arrivalSpeed="13.21" duration="21.00" routeLength="208.43" waitingTime="0.00" waitingCount="0" stopTime="0.00" timeLoss="5.06" rerouteNo="0" devices="tripinfo_f_5.1" vType="type1" speedFactor="0.99" vaporized=""/>
    <tripinfo id="f_4.1" depart="9.00" departLane="192748755#0_0" departPos="5.10" departSpeed="0.00" departDelay="1.00" arrival="36.00" arrivalLane="192748775_1" arrivalPos="327.83" arrivalSpeed="30.74" duration="27.00" routeLength="475.24" waitingTime="0.00" waitingCount="0" stopTime="0.00" timeLoss="6.99" rerouteNo="0" devices="tripinfo_f_4.1" vType="type1" speedFactor="1.12" vaporized=""/>
    <tripinfo id="f_6.2" depart="24.00" departLane="192748755#0_0" departPos="5.10" departSpeed="0.00" departDelay="8.00" arrival="42.00" arrivalLane="422972291_0" arrivalPos="44.85" arrivalSpeed="22.60" duration="18.00" routeLength="188.57" waitingTime="0.00" waitingCount="0" stopTime="0.00" timeLoss="4.37" rerouteNo="0" devices="tripinfo_f_6.2" vType="type1" speedFactor="0.83" vaporized=""/>
    <tripinfo id="f_5.2" depart="21.00" departLane="192748755#0_0" departPos="5.10" departSpeed="0.00" departDelay="5.00" arrival="43.00" arrivalLane="192748767#0_0" arrivalPos="97.24" arrivalSpeed="11.86" duration="22.00" routeLength="208.43" waitingTime="0.00" waitingCount="0" stopTime="0.00" timeLoss="3.56" rerouteNo="0" devices="tripinfo_f_5.2" vType="type1" speedFactor="0.89" vaporized=""/>
    <tripinfo id="f_4.2" depart="18.00" departLane="192748755#0_0" departPos="5.10" departSpeed="0.00" departDelay="2.00" arrival="48.00" arrivalLane="192748775_1" arrivalPos="327.83" arrivalSpeed="26.90" duration="30.00" routeLength="475.24" waitingTime="0.00" waitingCount="0" stopTime="0.00" timeLoss="6.12" rerouteNo="0" devices="tripinfo_f_4.2" vType="type1" speedFactor="0.97" vaporized=""/>
    <tripinfo id="f_6.3" depart="32.00" departLane="192748755#0_0" departPos="5.10" departSpeed="0.00" departDelay="8.00" arrival="48.00" arrivalLane="422972291_0" arrivalPos="44.85" arrivalSpeed="23.85" duration="16.00" routeLength="188.57" waitingTime="0.00" waitingCount="0" stopTime="0.00" timeLoss="6.21" rerouteNo="0" devices="tripinfo_f_6.3" vType="type1" speedFactor="1.17" vaporized=""/>
    <tripinfo id="f_5.3" depart="29.00" departLane="192748755#0_0" departPos="5.10" departSpeed="0.00" departDelay="5.00" arrival="49.00" arrivalLane="192748767#0_0" arrivalPos="97.24" arrivalSpeed="13.01" duration="20.00" routeLength="208.43" waitingTime="0.00" waitingCount="0" stopTime="0.00" timeLoss="4.18" rerouteNo="0" devices="tripinfo_f_5.3" vType="type1" speedFactor="1.01" vaporized=""/>
    <tripinfo id="f_4.3" depart="27.00" departLane="192748755#0_0" departPos="5.10" departSpeed="0.00" departDelay="3.00" arrival="54.00" arrivalLane="192748775_1" arrivalPos="327.83" arrivalSpeed="31.74" duration="27.00" routeLength="475.24" waitingTime="0.00" waitingCount="0" stopTime="0.00" timeLoss="7.09" rerouteNo="0" devices="tripinfo_f_4.3" vType="type1" speedFactor="1.15" vaporized=""/>
    <tripinfo id="f_6.4" depart="40.00" departLane="192748755#0_0" departPos="5.10" departSpeed="0.00" departDelay="8.00" arrival="56.00" arrivalLane="422972291_0" arrivalPos="44.85" arrivalSpeed="21.06" duration="16.00" routeLength="188.57" waitingTime="0.00" waitingCount="0" stopTime="0.00" timeLoss="6.06" rerouteNo="0" devices="tripinfo_f_6.4" vType="type1" speedFactor="1.09" vaporized=""/>
    <tripinfo id="f_5.4" depart="37.00" departLane="192748755#0_0" departPos="5.10" departSpeed="0.00" departDelay="5.00" arrival="58.00" arrivalLane="192748767#0_0" arrivalPos="97.24" arrivalSpeed="13.19" duration="21.00" routeLength="208.43" waitingTime="0.00" waitingCount="0" stopTime="0.00" timeLoss="3.98" rerouteNo="0" devices="tripinfo_f_5.4" vType="type1" speedFactor="0.96" vaporized=""/>
    <tripinfo id="f_4.4" depart="35.00" departLane="192748755#0_0" departPos="5.10" departSpeed="0.00" departDelay="3.00" arrival="64.00" arrivalLane="192748775_1" arrivalPos="327.83" arrivalSpeed="27.93" duration="29.00" routeLength="475.24" waitingTime="0.00" waitingCount="0" stopTime="0.00" timeLoss="7.05" rerouteNo="0" devices="tripinfo_f_4.4" vType="type1" speedFactor="1.03" vaporized=""/>
    <tripinfo id="f_6.5" depart="48.00" departLane="192748755#0_0" departPos="5.10" departSpeed="0.00" departDelay="8.00" arrival="65.00" arrivalLane="422972291_0" arrivalPos="44.85" arrivalSpeed="19.84" duration="17.00" routeLength="188.57" waitingTime="0.00" waitingCount="0" stopTime="0.00" timeLoss="7.83" rerouteNo="0" devices="tripinfo_f_6.5" vType="type1" speedFactor="1.17" vaporized=""/>
    <tripinfo id="f_5.5" depart="45.00" departLane="192748755#0_0" departPos="5.10" departSpeed="0.00" departDelay="5.00" arrival="68.00" arrivalLane="192748767#0_0" arrivalPos="97.24" arrivalSpeed="10.76" duration="23.00" routeLength="208.43" waitingTime="0.00" waitingCount="0" stopTime="0.00" timeLoss="4.09" rerouteNo="0" devices="tripinfo_f_5.5" vType="type1" speedFactor="0.85" vaporized=""/>
    <tripinfo id="f_6.6" depart="56.00" departLane="192748755#0_0" departPos="5.10" departSpeed="0.00" departDelay="8.00" arrival="72.00" arrivalLane="422972291_0" arrivalPos="44.85" arrivalSpeed="22.98" duration="16.00" routeLength="188.57" waitingTime="0.00" waitingCount="0" stopTime="0.00" timeLoss="5.56" rerouteNo="0" devices="tripinfo_f_6.6" vType="type1" speedFactor="1.08" vaporized=""/>
    <tripinfo id="f_5.6" depart="53.00" departLane="192748755#0_0" departPos="5.10" departSpeed="0.00" departDelay="5.00" arrival="74.00" arrivalLane="192748767#0_0" arrivalPos="97.24" arrivalSpeed="12.96" duration="21.00" routeLength="208.43" waitingTime="0.00" waitingCount="0" stopTime="0.00" timeLoss="4.10" rerouteNo="0" devices="tripinfo_f_5.6" vType="type1" speedFactor="0.97" vaporized=""/>
    <tripinfo id="f_4.5" depart="43.00" departLane="192748755#0_0" departPos="5.10" departSpeed="0.00" departDelay="3.00" arrival="77.00" arrivalLane="192748775_1" arrivalPos="327.83" arrivalSpeed="23.03" duration="34.00" routeLength="475.24" waitingTime="0.00" waitingCount="0" stopTime="0.00" timeLoss="7.10" rerouteNo="0" devices="tripinfo_f_4.5" vType="type1" speedFactor="0.85" vaporized=""/>
    <tripinfo id="f_4.6" depart="51.00" departLane="192748755#0_0" departPos="5.10" departSpeed="0.00" departDelay="3.00" arrival="80.00" arrivalLane="192748775_1" arrivalPos="327.83" arrivalSpeed="27.41" duration="29.00" routeLength="475.24" waitingTime="0.00" waitingCount="0" stopTime="0.00" timeLoss="6.29" rerouteNo="0" devices="tripinfo_f_4.6" vType="type1" speedFactor="1.02" vaporized=""/>
    <tripinfo id="f_6.7" depart="64.00" departLane="192748755#0_0" departPos="5.10" departSpeed="0.00" departDelay="8.00" arrival="80.00" arrivalLane="422972291_0" arrivalPos="44.85" arrivalSpeed="22.24" duration="16.00" routeLength="188.57" waitingTime="0.00" waitingCount="0" stopTime="0.00" timeLoss="4.82" rerouteNo="0" devices="tripinfo_f_6.7" vType="type1" speedFactor="1.02" vaporized=""/>
    <tripinfo id="f_5.7" depart="61.00" departLane="192748755#0_0" departPos="5.10" departSpeed="0.00" departDelay="5.00" arrival="81.00" arrivalLane="192748767#0_0" arrivalPos="97.24" arrivalSpeed="13.21" duration="20.00" routeLength="208.43" waitingTime="0.00" waitingCount="0" stopTime="0.00" timeLoss="4.70" rerouteNo="0" devices="tripinfo_f_5.7" vType="type1" speedFactor="1.04" vaporized=""/>
    <tripinfo id="f_6.8" depart="72.00" departLane="192748755#0_0" departPos="5.10" departSpeed="0.00" departDelay="8.00" arrival="88.00" arrivalLane="422972291_0" arrivalPos="44.85" arrivalSpeed="21.81" duration="16.00" routeLength="188.57" waitingTime="0.00" waitingCount="0" stopTime="0.00" timeLoss="4.98" rerouteNo="0" devices="tripinfo_f_6.8" vType="type1" speedFactor="1.01" vaporized=""/>
    <tripinfo id="f_5.8" depart="69.00" departLane="192748755#0_0" departPos="5.10" departSpeed="0.00" departDelay="5.00" arrival="89.00" arrivalLane="192748767#0_0" arrivalPos="97.24" arrivalSpeed="13.42" duration="20.00" routeLength="208.43" waitingTime="0.00" waitingCount="0" stopTime="0.00" timeLoss="4.00" rerouteNo="0" devices="tripinfo_f_5.8" vType="type1" speedFactor="0.98" vaporized=""/>
    <tripinfo id="f_4.7" depart="59.00" departLane="192748755#0_0" departPos="5.10" departSpeed="0.00" departDelay="3.00" arrival="90.00" arrivalLane="192748775_1" arrivalPos="327.83" arrivalSpeed="25.20" duration="31.00" routeLength="475.24" waitingTime="0.00" waitingCount="0" stopTime="0.00" timeLoss="5.85" rerouteNo="0" devices="tripinfo_f_4.7" vType="type1" speedFactor="0.91" vaporized=""/>
    <tripinfo id="f_4.8" depart="67.00" departLane="192748755#0_0" departPos="5.10" departSpeed="0.00" departDelay="3.00" arrival="96.00" arrivalLane="192748775_1" arrivalPos="327.83" arrivalSpeed="27.78" duration="29.00" routeLength="475.24" waitingTime="0.00" waitingCount="0" stopTime="0.00" timeLoss="6.89" rerouteNo="0" devices="tripinfo_f_4.8" vType="type1" speedFactor="1.03" vaporized=""/>
    <tripinfo id="f_6.9" depart="80.00" departLane="192748755#0_0" departPos="5.10" departSpeed="0.00" departDelay="8.00" arrival="96.00" arrivalLane="422972291_0" arrivalPos="44.85" arrivalSpeed="24.25" duration="16.00" routeLength="188.57" waitingTime="0.00" waitingCount="0" stopTime="0.00" timeLoss="4.96" rerouteNo="0" devices="tripinfo_f_6.9" vType="type1" speedFactor="1.04" vaporized=""/>
    <tripinfo id="f_5.9" depart="77.00" departLane="192748755#0_0" departPos="5.10" departSpeed="0.00" departDelay="5.00" arrival="97.00" arrivalLane="192748767#0_0" arrivalPos="97.24" arrivalSpeed="13.02" duration="20.00" routeLength="208.43" waitingTime="0.00" waitingCount="0" stopTime="0.00" timeLoss="4.16" rerouteNo="0" devices="tripinfo_f_5.9" vType="type1" speedFactor="1.00" vaporized=""/>
    <tripinfo id="f_6.10" depart="88.00" departLane="192748755#0_0" departPos="5.10" departSpeed="0.00" departDelay="8.00" arrival="104.00" arrivalLane="422972291_0" arrivalPos="44.85" arrivalSpeed="24.12" duration="16.00" routeLength="188.57" waitingTime="0.00" waitingCount="0" stopTime="0.00" timeLoss="4.80" rerouteNo="0" devices="tripinfo_f_6.10" vType="type1" speedFactor="1.01" vaporized=""/>
    <tripinfo id="f_4.9" depart="75.00" departLane="192748755#0_0" departPos="5.10" departSpeed="0.00" departDelay="3.00" arrival="105.00" arrivalLane="192748775_1" arrivalPos="327.83" arrivalSpeed="26.84" duration="30.00" routeLength="475.24" waitingTime="0.00" waitingCount="0" stopTime="0.00" timeLoss="5.97" rerouteNo="0" devices="tripinfo_f_4.9" vType="type1" speedFactor="0.98" vaporized=""/>
    <tripinfo id="f_5.10" depart="85.00" departLane="192748755#0_0" departPos="5.10" departSpeed="0.00" departDelay="5.00" arrival="106.00" arrivalLane="192748767#0_0" arrivalPos="97.24" arrivalSpeed="13.39" duration="21.00" routeLength="208.43" waitingTime="0.00" waitingCount="0" stopTime="0.00" timeLoss="5.68" rerouteNo="0" devices="tripinfo_f_5.10" vType="type1" speedFactor="1.06" vaporized=""/>
    <tripinfo id="f_4.10" depart="83.00" departLane="192748755#0_0" departPos="5.10" departSpeed="0.00" departDelay="3.00" arrival="111.00" arrivalLane="192748775_1" arrivalPos="327.83" arrivalSpeed="30.28" duration="28.00" routeLength="475.24" waitingTime="0.00" waitingCount="0" stopTime="0.00" timeLoss="6.69" rerouteNo="0" devices="tripinfo_f_4.10" vType="type1" speedFactor="1.09" vaporized=""/>
    <tripinfo id="f_6.11" depart="96.00" departLane="192748755#0_0" departPos="5.10" departSpeed="0.00" departDelay="8.00" arrival="112.00" arrivalLane="422972291_0" arrivalPos="44.85" arrivalSpeed="22.76" duration="16.00" routeLength="188.57" waitingTime="0.00" waitingCount="0" stopTime="0.00" timeLoss="5.58" rerouteNo="0" devices="tripinfo_f_6.11" vType="type1" speedFactor="1.07" vaporized=""/>
    <tripinfo id="f_5.11" depart="93.00" departLane="192748755#0_0" departPos="5.10" departSpeed="0.00" departDelay="5.00" arrival="115.00" arrivalLane="192748767#0_0" arrivalPos="97.24" arrivalSpeed="11.95" duration="22.00" routeLength="208.43" waitingTime="0.00" waitingCount="0" stopTime="0.00" timeLoss="3.98" rerouteNo="0" devices="tripinfo_f_5.11" vType="type1" speedFactor="0.89" vaporized=""/>
    <tripinfo id="f_6.12" depart="104.00" departLane="192748755#0_0" departPos="5.10" departSpeed="0.00" departDelay="8.00" arrival="119.00" arrivalLane="422972291_0" arrivalPos="44.85" arrivalSpeed="26.02" duration="15.00" routeLength="188.57" waitingTime="0.00" waitingCount="0" stopTime="0.00" timeLoss="4.76" rerouteNo="0" devices="tripinfo_f_6.12" vType="type1" speedFactor="1.10" vaporized=""/>
    <tripinfo id="f_4.11" depart="91.00" departLane="192748755#0_0" departPos="5.10" departSpeed="0.00" departDelay="3.00" arrival="121.00" arrivalLane="192748775_1" arrivalPos="327.83" arrivalSpeed="25.58" duration="30.00" routeLength="475.24" waitingTime="0.00" waitingCount="0" stopTime="0.00" timeLoss="5.81" rerouteNo="0" devices="tripinfo_f_4.11" vType="type1" speedFactor="0.95" vaporized=""/>
    <tripinfo id="f_5.12" depart="101.00" departLane="192748755#0_0" departPos="5.10" departSpeed="0.00" departDelay="5.00" arrival="121.00" arrivalLane="192748767#0_0" arrivalPos="97.24" arrivalSpeed="13.22" duration="20.00" routeLength="208.43" waitingTime="0.00" waitingCount="0" stopTime="0.00" timeLoss="4.02" rerouteNo="0" devices="tripinfo_f_5.12" vType="type1" speedFactor="1.01" vaporized=""/>
    <tripinfo id="f_4.12" depart="99.00" departLane="192748755#0_0" departPos="5.10" departSpeed="0.00" departDelay="3.00" arrival="127.00" arrivalLane="192748775_1" arrivalPos="327.83" arrivalSpeed="29.61" duration="28.00" routeLength="475.24" waitingTime="0.00" waitingCount="0" stopTime="0.00" timeLoss="6.53" rerouteNo="0" devices="tripinfo_f_4.12" vType="type1" speedFactor="1.10" vaporized=""/>
    <tripinfo id="f_6.13" depart="112.00" departLane="192748755#0_0" departPos="5.10" departSpeed="0.00" departDelay="8.00" arrival="127.00" arrivalLane="422972291_0" arrivalPos="44.85" arrivalSpeed="23.68" duration="15.00" routeLength="188.57" waitingTime="0.00" waitingCount="0" stopTime="0.00" timeLoss="4.67" rerouteNo="0" devices="tripinfo_f_6.13" vType="type1" speedFactor="1.02" vaporized=""/>
    <tripinfo id="f_5.13" depart="109.00" departLane="192748755#0_0" departPos="5.10" departSpeed="0.00" departDelay="5.00" arrival="129.00" arrivalLane="192748767#0_0" arrivalPos="97.24" arrivalSpeed="14.21" duration="20.00" routeLength="208.43" waitingTime="0.00" waitingCount="0" stopTime="0.00" timeLoss="4.43" rerouteNo="0" devices="tripinfo_f_5.13" vType="type1" speedFactor="1.03" vaporized=""/>
    <tripinfo id="f_4.13" depart="107.00" departLane="192748755#0_0" departPos="5.10" departSpeed="0.00" departDelay="3.00" arrival="135.00" arrivalLane="192748775_1" arrivalPos="327.83" arrivalSpeed="30.26" duration="28.00" routeLength="475.24" waitingTime="0.00" waitingCount="0" stopTime="0.00" timeLoss="6.52" rerouteNo="0" devices="tripinfo_f_4.13" vType="type1" speedFactor="1.10" vaporized=""/>
    <tripinfo id="f_5.14" depart="117.00" departLane="192748755#0_0" departPos="5.10" departSpeed="0.00" departDelay="5.00" arrival="136.00" arrivalLane="192748767#0_0" arrivalPos="97.24" arrivalSpeed="13.79" duration="19.00" routeLength="208.43" waitingTime="0.00" waitingCount="0" stopTime="0.00" timeLoss="4.43" rerouteNo="0" devices="tripinfo_f_5.14" vType="type1" speedFactor="1.07" vaporized=""/>
    <tripinfo id="f_6.14" depart="119.00" departLane="192748755#0_0" departPos="5.10" departSpeed="0.00" departDelay="7.00" arrival="136.00" arrivalLane="422972291_0" arrivalPos="44.85" arrivalSpeed="23.24" duration="17.00" routeLength="188.57" waitingTime="0.00" waitingCount="0" stopTime="0.00" timeLoss="5.07" rerouteNo="0" devices="tripinfo_f_6.14" vType="type1" speedFactor="0.96" vaporized=""/>
    <tripinfo id="f_6.15" depart="128.00" departLane="192748755#0_0" departPos="5.10" departSpeed="0.00" departDelay="8.00" arrival="143.00" arrivalLane="422972291_0" arrivalPos="44.85" arrivalSpeed="23.80" duration="15.00" routeLength="188.57" waitingTime="0.00" waitingCount="0" stopTime="0.00" timeLoss="5.76" rerouteNo="0" devices="tripinfo_f_6.15" vType="type1" speedFactor="1.16" vaporized=""/>
    <tripinfo id="f_4.14" depart="115.00" departLane="192748755#0_0" departPos="5.10" departSpeed="0.00" departDelay="3.00" arrival="144.00" arrivalLane="192748775_1" arrivalPos="327.83" arrivalSpeed="28.37" duration="29.00" routeLength="475.24" waitingTime="0.00" waitingCount="0" stopTime="0.00" timeLoss="6.10" rerouteNo="0" devices="tripinfo_f_4.14" vType="type1" speedFactor="1.03" vaporized=""/>
    <tripinfo id="f_5.15" depart="125.00" departLane="192748755#0_0" departPos="5.10" departSpeed="0.00" departDelay="5.00" arrival="144.00" arrivalLane="192748767#0_0" arrivalPos="97.24" arrivalSpeed="14.38" duration="19.00" routeLength="208.43" waitingTime="0.00" waitingCount="0" stopTime="0.00" timeLoss="4.94" rerouteNo="0" devices="tripinfo_f_5.15" vType="type1" speedFactor="1.11" vaporized=""/>
    <tripinfo id="f_6.16" depart="136.00" departLane="192748755#0_0" departPos="5.10" departSpeed="0.00" departDelay="8.00" arrival="152.00" arrivalLane="422972291_0" arrivalPos="44.85" arrivalSpeed="22.78" duration="16.00" routeLength="188.57" waitingTime="0.00" waitingCount="0" stopTime="0.00" timeLoss="4.69" rerouteNo="0" devices="tripinfo_f_6.16" vType="type1" speedFactor="0.96" vaporized=""/>
    <tripinfo id="f_5.16" depart="133.00" departLane="192748755#0_0" departPos="5.10" departSpeed="0.00" departDelay="5.00" arrival="153.00" arrivalLane="192748767#0_0" arrivalPos="97.24" arrivalSpeed="13.71" duration="20.00" routeLength="208.43" waitingTime="0.00" waitingCount="0" stopTime="0.00" timeLoss="4.76" rerouteNo="0" devices="tripinfo_f_5.16" vType="type1" speedFactor="1.04" vaporized=""/>
    <tripinfo id="f_4.15" depart="122.00" departLane="192748755#0_0" departPos="5.10" departSpeed="0.00" departDelay="2.00" arrival="154.00" arrivalLane="192748775_1" arrivalPos="327.83" arrivalSpeed="25.41" duration="32.00" routeLength="475.24" waitingTime="0.00" waitingCount="0" stopTime="0.00" timeLoss="7.45" rerouteNo="0" devices="tripinfo_f_4.15" vType="type1" speedFactor="0.95" vaporized=""/>
    <tripinfo id="f_6.17" depart="144.00" departLane="192748755#0_0" departPos="5.10" departSpeed="0.00" departDelay="8.00" arrival="161.00" arrivalLane="422972291_0" arrivalPos="44.85" arrivalSpeed="19.85" duration="17.00" routeLength="188.57" waitingTime="0.00" waitingCount="0" stopTime="0.00" timeLoss="7.36" rerouteNo="0" devices="tripinfo_f_6.17" vType="type1" speedFactor="1.14" vaporized=""/>
    <tripinfo id="f_4.16" depart="131.00" departLane="192748755#0_0" departPos="5.10" departSpeed="0.00" departDelay="3.00" arrival="162.00" arrivalLane="192748775_1" arrivalPos="327.83" arrivalSpeed="25.92" duration="31.00" routeLength="475.24" waitingTime="0.00" waitingCount="0" stopTime="0.00" timeLoss="6.36" rerouteNo="0" devices="tripinfo_f_4.16" vType="type1" speedFactor="0.97" vaporized=""/>
    <tripinfo id="f_5.17" depart="141.00" departLane="192748755#0_0" departPos="5.10" departSpeed="0.00" departDelay="5.00" arrival="163.00" arrivalLane="192748767#0_0" arrivalPos="97.24" arrivalSpeed="11.95" duration="22.00" routeLength="208.43" waitingTime="0.00" waitingCount="0" stopTime="0.00" timeLoss="4.09" rerouteNo="0" devices="tripinfo_f_5.17" vType="type1" speedFactor="0.91" vaporized=""/>
    <tripinfo id="f_4.17" depart="139.00" departLane="192748755#0_0" departPos="5.10" departSpeed="0.00" departDelay="3.00" arrival="168.00" arrivalLane="192748775_1" arrivalPos="327.83" arrivalSpeed="29.02" duration="29.00" routeLength="475.24" waitingTime="0.00" waitingCount="0" stopTime="0.00" timeLoss="6.84" rerouteNo="0" devices="tripinfo_f_4.17" vType="type1" speedFactor="1.08" vaporized=""/>
    <tripinfo id="f_6.18" depart="152.00" departLane="192748755#0_0" departPos="5.10" departSpeed="0.00" departDelay="8.00" arrival="168.00" arrivalLane="422972291_0" arrivalPos="44.85" arrivalSpeed="22.57" duration="16.00" routeLength="188.57" waitingTime="0.00" waitingCount="0" stopTime="0.00" timeLoss="4.44" rerouteNo="0" devices="tripinfo_f_6.18" vType="type1" speedFactor="0.98" vaporized=""/>
    <tripinfo id="f_5.18" depart="149.00" departLane="192748755#0_0" departPos="5.10" departSpeed="0.00" departDelay="5.00" arrival="169.00" arrivalLane="192748767#0_0" arrivalPos="97.24" arrivalSpeed="13.18" duration="20.00" routeLength="208.43" waitingTime="0.00" waitingCount="0" stopTime="0.00" timeLoss="4.48" rerouteNo="0" devices="tripinfo_f_5.18" vType="type1" speedFactor="1.03" vaporized=""/>
    <tripinfo id="f_4.18" depart="147.00" departLane="192748755#0_0" departPos="5.10" departSpeed="0.00" departDelay="3.00" arrival="176.00" arrivalLane="192748775_1" arrivalPos="327.83" arrivalSpeed="26.78" duration="29.00" routeLength="475.24" waitingTime="0.00" waitingCount="0" stopTime="0.00" timeLoss="5.76" rerouteNo="0" devices="tripinfo_f_4.18" vType="type1" speedFactor="1.00" vaporized=""/>
    <tripinfo id="f_5.19" depart="158.00" departLane="192748755#0_0" departPos="5.10" departSpeed="0.00" departDelay="6.00" arrival="177.00" arrivalLane="192748767#0_0" arrivalPos="97.24" arrivalSpeed="14.29" duration="19.00" routeLength="208.43" waitingTime="0.00" waitingCount="0" stopTime="0.00" timeLoss="4.56" rerouteNo="0" devices="tripinfo_f_5.19" vType="type1" speedFactor="1.09" vaporized=""/>
    <tripinfo id="f_6.19" depart="161.00" departLane="192748755#0_0" departPos="5.10" departSpeed="0.00" departDelay="9.00" arrival="177.00" arrivalLane="422972291_0" arrivalPos="44.85" arrivalSpeed="22.74" duration="16.00" routeLength="188.57" waitingTime="0.00" waitingCount="0" stopTime="0.00" timeLoss="5.48" rerouteNo="0" devices="tripinfo_f_6.19" vType="type1" speedFactor="1.03" vaporized=""/>
    <tripinfo id="f_4.19" depart="155.00" departLane="192748755#0_0" departPos="5.10" departSpeed="0.00" departDelay="3.00" arrival="186.00" arrivalLane="192748775_1" arrivalPos="327.83" arrivalSpeed="24.32" duration="31.00" routeLength="475.24" waitingTime="0.00" waitingCount="0" stopTime="0.00" timeLoss="5.90" rerouteNo="0" devices="tripinfo_f_4.19" vType="type1" speedFactor="0.92" vaporized=""/>
    <tripinfo id="f_6.20" depart="169.00" departLane="192748755#0_0" departPos="5.10" departSpeed="0.00" departDelay="9.00" arrival="186.00" arrivalLane="422972291_0" arrivalPos="44.85" arrivalSpeed="19.83" duration="17.00" routeLength="188.57" waitingTime="0.00" waitingCount="0" stopTime="0.00" timeLoss="7.03" rerouteNo="0" devices="tripinfo_f_6.20" vType="type1" speedFactor="1.08" vaporized=""/>
    <tripinfo id="f_5.20" depart="166.00" departLane="192748755#0_0" departPos="5.10" departSpeed="0.00" departDelay="6.00" arrival="188.00" arrivalLane="192748767#0_0" arrivalPos="97.24" arrivalSpeed="11.97" duration="22.00" routeLength="208.43" waitingTime="0.00" waitingCount="0" stopTime="0.00" timeLoss="4.63" rerouteNo="0" devices="tripinfo_f_5.20" vType="type1" speedFactor="0.92" vaporized=""/>
    <tripinfo id="f_4.20" depart="164.00" departLane="192748755#0_0" departPos="5.10" departSpeed="0.00" departDelay="4.00" arrival="194.00" arrivalLane="192748775_1" arrivalPos="327.83" arrivalSpeed="25.32" duration="30.00" routeLength="475.24" waitingTime="0.00" waitingCount="0" stopTime="0.00" timeLoss="5.68" rerouteNo="0" devices="tripinfo_f_4.20" vType="type1" speedFactor="0.94" vaporized=""/>
    <tripinfo id="f_5.21" depart="174.00" departLane="192748755#0_0" departPos="5.10" departSpeed="0.00" departDelay="6.00" arrival="195.00" arrivalLane="192748767#0_0" arrivalPos="97.24" arrivalSpeed="13.33" duration="21.00" routeLength="208.43" waitingTime="0.00" waitingCount="0" stopTime="0.00" timeLoss="5.05" rerouteNo="0" devices="tripinfo_f_5.21" vType="type1" speedFactor="1.00" vaporized=""/>
    <tripinfo id="f_6.21" depart="177.00" departLane="192748755#0_0" departPos="5.10" departSpeed="0.00" departDelay="9.00" arrival="195.00" arrivalLane="422972291_0" arrivalPos="44.85" arrivalSpeed="20.83" duration="18.00" routeLength="188.57" waitingTime="0.00" waitingCount="0" stopTime="0.00" timeLoss="4.85" rerouteNo="0" devices="tripinfo_f_6.21" vType="type1" speedFactor="0.84" vaporized=""/>
    <tripinfo id="f_4.21" depart="172.00" departLane="192748755#0_0" departPos="5.10" departSpeed="0.00" departDelay="4.00" arrival="200.00" arrivalLane="192748775_1" arrivalPos="327.83" arrivalSpeed="28.55" duration="28.00" routeLength="475.24" waitingTime="0.00" waitingCount="0" stopTime="0.00" timeLoss="6.23" rerouteNo="0" devices="tripinfo_f_4.21" vType="type1" speedFactor="1.07" vaporized=""/>
    <tripinfo id="f_5.22" depart="182.00" departLane="192748755#0_0" departPos="5.10" departSpeed="0.00" departDelay="6.00" arrival="201.00" arrivalLane="192748767#0_0" arrivalPos="97.24" arrivalSpeed="14.92" duration="19.00" routeLength="208.43" waitingTime="0.00" waitingCount="0" stopTime="0.00" timeLoss="4.87" rerouteNo="0" devices="tripinfo_f_5.22" vType="type1" speedFactor="1.11" vaporized=""/>
    <tripinfo id="f_6.22" depart="185.00" departLane="192748755#0_0" departPos="5.10" departSpeed="0.00" departDelay="9.00" arrival="201.00" arrivalLane="422972291_0" arrivalPos="44.85" arrivalSpeed="24.31" duration="16.00" routeLength="188.57" waitingTime="0.00" waitingCount="0" stopTime="0.00" timeLoss="5.42" rerouteNo="0" devices="tripinfo_f_6.22" vType="type1" speedFactor="1.07" vaporized=""/>
    <tripinfo id="f_4.22" depart="180.00" departLane="192748755#0_0" departPos="5.10" departSpeed="0.00" departDelay="4.00" arrival="209.00" arrivalLane="192748775_1" arrivalPos="327.83" arrivalSpeed="27.86" duration="29.00" routeLength="475.24" waitingTime="0.00" waitingCount="0" stopTime="0.00" timeLoss="6.42" rerouteNo="0" devices="tripinfo_f_4.22" vType="type1" speedFactor="1.03" vaporized=""/>
    <tripinfo id="f_6.23" depart="193.00" departLane="192748755#0_0" departPos="5.10" departSpeed="0.00" departDelay="9.00" arrival="209.00" arrivalLane="422972291_0" arrivalPos="44.85" arrivalSpeed="23.01" duration="16.00" routeLength="188.57" waitingTime="0.00" waitingCount="0" stopTime="0.00" timeLoss="5.69" rerouteNo="0" devices="tripinfo_f_6.23" vType="type1" speedFactor="1.10" vaporized=""/>
    <tripinfo id="f_5.23" depart="190.00" departLane="192748755#0_0" departPos="5.10" departSpeed="0.00" departDelay="6.00" arrival="210.00" arrivalLane="192748767#0_0" arrivalPos="97.24" arrivalSpeed="13.42" duration="20.00" routeLength="208.43" waitingTime="0.00" waitingCount="0" stopTime="0.00" timeLoss="4.23" rerouteNo="0" devices="tripinfo_f_5.23" vType="type1" speedFactor="1.00" vaporized=""/>
    <tripinfo id="f_4.23" depart="188.00" departLane="192748755#0_0" departPos="5.10" departSpeed="0.00" departDelay="4.00" arrival="217.00" arrivalLane="192748775_1" arrivalPos="327.83" arrivalSpeed="27.65" duration="29.00" routeLength="475.24" waitingTime="0.00" waitingCount="0" stopTime="0.00" timeLoss="6.44" rerouteNo="0" devices="tripinfo_f_4.23" vType="type1" speedFactor="1.04" vaporized=""/>